 VARIABLES= "X", "Y"
 ZONE N=    9114 E=   17877 F=FEPOINT  ET=triangle
  0.99406E+00 -0.88088E-03
  0.98805E+00 -0.17614E-02
  0.98195E+00 -0.26407E-02
  0.97578E+00 -0.35172E-02
  0.96952E+00 -0.43953E-02
  0.96318E+00 -0.52794E-02
  0.95675E+00 -0.61674E-02
  0.95024E+00 -0.70597E-02
  0.94364E+00 -0.79571E-02
  0.93695E+00 -0.88602E-02
  0.93018E+00 -0.97685E-02
  0.92332E+00 -0.10681E-01
  0.91636E+00 -0.11598E-01
  0.90931E+00 -0.12519E-01
  0.90217E+00 -0.13443E-01
  0.89493E+00 -0.14370E-01
  0.88759E+00 -0.15301E-01
  0.88016E+00 -0.16236E-01
  0.87263E+00 -0.17175E-01
  0.86500E+00 -0.18118E-01
  0.85726E+00 -0.19065E-01
  0.84942E+00 -0.20015E-01
  0.84150E+00 -0.20965E-01
  0.83353E+00 -0.21912E-01
  0.82551E+00 -0.22856E-01
  0.81745E+00 -0.23796E-01
  0.80933E+00 -0.24732E-01
  0.80117E+00 -0.25665E-01
  0.79297E+00 -0.26593E-01
  0.78471E+00 -0.27516E-01
  0.77640E+00 -0.28435E-01
  0.76805E+00 -0.29349E-01
  0.75965E+00 -0.30257E-01
  0.75120E+00 -0.31160E-01
  0.74270E+00 -0.32058E-01
  0.73415E+00 -0.32950E-01
  0.72555E+00 -0.33836E-01
  0.71690E+00 -0.34717E-01
  0.70820E+00 -0.35591E-01
  0.69945E+00 -0.36458E-01
  0.69065E+00 -0.37320E-01
  0.68180E+00 -0.38175E-01
  0.67290E+00 -0.39024E-01
  0.66395E+00 -0.39866E-01
  0.65494E+00 -0.40700E-01
  0.64589E+00 -0.41526E-01
  0.63678E+00 -0.42343E-01
  0.62762E+00 -0.43150E-01
  0.61840E+00 -0.43950E-01
  0.60914E+00 -0.44741E-01
  0.59981E+00 -0.45522E-01
  0.59044E+00 -0.46292E-01
  0.58100E+00 -0.47051E-01
  0.57151E+00 -0.47798E-01
  0.56197E+00 -0.48535E-01
  0.55236E+00 -0.49260E-01
  0.54270E+00 -0.49971E-01
  0.53298E+00 -0.50667E-01
  0.52320E+00 -0.51346E-01
  0.51336E+00 -0.52010E-01
  0.50346E+00 -0.52658E-01
  0.49350E+00 -0.53287E-01
  0.48356E+00 -0.53892E-01
  0.47373E+00 -0.54467E-01
  0.46400E+00 -0.55014E-01
  0.45437E+00 -0.55532E-01
  0.44484E+00 -0.56021E-01
  0.43542E+00 -0.56483E-01
  0.42610E+00 -0.56916E-01
  0.41688E+00 -0.57322E-01
  0.40775E+00 -0.57701E-01
  0.39873E+00 -0.58050E-01
  0.38981E+00 -0.58369E-01
  0.38098E+00 -0.58654E-01
  0.37225E+00 -0.58923E-01
  0.36361E+00 -0.59154E-01
  0.35508E+00 -0.59360E-01
  0.34663E+00 -0.59539E-01
  0.33828E+00 -0.59689E-01
  0.33003E+00 -0.59809E-01
  0.32186E+00 -0.59901E-01
  0.31379E+00 -0.59964E-01
  0.30580E+00 -0.59999E-01
  0.29791E+00 -0.60006E-01
  0.29010E+00 -0.59984E-01
  0.28239E+00 -0.59937E-01
  0.27475E+00 -0.59862E-01
  0.26721E+00 -0.59757E-01
  0.25975E+00 -0.59624E-01
  0.25237E+00 -0.59465E-01
  0.24508E+00 -0.59278E-01
  0.23787E+00 -0.59060E-01
  0.23074E+00 -0.58810E-01
  0.22370E+00 -0.58534E-01
  0.21673E+00 -0.58234E-01
  0.20984E+00 -0.57906E-01
  0.20303E+00 -0.57547E-01
  0.19630E+00 -0.57154E-01
  0.18965E+00 -0.56724E-01
  0.18307E+00 -0.56267E-01
  0.17657E+00 -0.55788E-01
  0.17015E+00 -0.55281E-01
  0.16380E+00 -0.54745E-01
  0.15752E+00 -0.54174E-01
  0.15132E+00 -0.53566E-01
  0.14519E+00 -0.52917E-01
  0.13914E+00 -0.52231E-01
  0.13316E+00 -0.51522E-01
  0.12726E+00 -0.50787E-01
  0.12144E+00 -0.50019E-01
  0.11571E+00 -0.49213E-01
  0.11006E+00 -0.48362E-01
  0.10449E+00 -0.47463E-01
  0.98998E-01 -0.46535E-01
  0.93587E-01 -0.45577E-01
  0.88257E-01 -0.44579E-01
  0.83008E-01 -0.43529E-01
  0.77843E-01 -0.42421E-01
  0.72758E-01 -0.41270E-01
  0.67751E-01 -0.40082E-01
  0.62828E-01 -0.38839E-01
  0.57991E-01 -0.37523E-01
  0.53243E-01 -0.36138E-01
  0.48577E-01 -0.34703E-01
  0.44001E-01 -0.33194E-01
  0.39524E-01 -0.31592E-01
  0.35140E-01 -0.29921E-01
  0.30855E-01 -0.28164E-01
  0.26689E-01 -0.26286E-01
  0.22626E-01 -0.24329E-01
  0.18708E-01 -0.22222E-01
  0.14968E-01 -0.19922E-01
  0.11412E-01 -0.17447E-01
  0.81877E-02 -0.14642E-01
  0.52846E-02 -0.11584E-01
  0.29049E-02 -0.81720E-02
  0.10420E-02 -0.45160E-02
  0.17173E-04 -0.60036E-03
  0.66331E-03  0.33755E-02
  0.23299E-02  0.70982E-02
  0.45309E-02  0.10592E-01
  0.72804E-02  0.13742E-01
  0.10376E-01  0.16628E-01
  0.13829E-01  0.19167E-01
  0.17483E-01  0.21506E-01
  0.21316E-01  0.23652E-01
  0.25300E-01  0.25629E-01
  0.29385E-01  0.27523E-01
  0.33588E-01  0.29292E-01
  0.37890E-01  0.30971E-01
  0.42279E-01  0.32585E-01
  0.46763E-01  0.34107E-01
  0.51336E-01  0.35556E-01
  0.55990E-01  0.36951E-01
  0.60729E-01  0.38277E-01
  0.65554E-01  0.39530E-01
  0.70460E-01  0.40727E-01
  0.75443E-01  0.41885E-01
  0.80503E-01  0.43003E-01
  0.85645E-01  0.44062E-01
  0.90868E-01  0.45070E-01
  0.96169E-01  0.46037E-01
  0.10155E+00  0.46974E-01
  0.10700E+00  0.47883E-01
  0.11254E+00  0.48744E-01
  0.11816E+00  0.49562E-01
  0.12385E+00  0.50340E-01
  0.12963E+00  0.51087E-01
  0.13549E+00  0.51808E-01
  0.14143E+00  0.52507E-01
  0.14744E+00  0.53167E-01
  0.15352E+00  0.53787E-01
  0.15967E+00  0.54370E-01
  0.16590E+00  0.54920E-01
  0.17220E+00  0.55440E-01
  0.17858E+00  0.55936E-01
  0.18502E+00  0.56410E-01
  0.19155E+00  0.56858E-01
  0.19815E+00  0.57269E-01
  0.20482E+00  0.57645E-01
  0.21157E+00  0.57990E-01
  0.21840E+00  0.58305E-01
  0.22531E+00  0.58594E-01
  0.23230E+00  0.58860E-01
  0.23936E+00  0.59105E-01
  0.24651E+00  0.59323E-01
  0.25374E+00  0.59507E-01
  0.26104E+00  0.59659E-01
  0.26844E+00  0.59781E-01
  0.27591E+00  0.59875E-01
  0.28347E+00  0.59943E-01
  0.29111E+00  0.59987E-01
  0.29884E+00  0.60010E-01
  0.30666E+00  0.60006E-01
  0.31456E+00  0.59970E-01
  0.32256E+00  0.59902E-01
  0.33064E+00  0.59804E-01
  0.33881E+00  0.59677E-01
  0.34708E+00  0.59524E-01
  0.35543E+00  0.59346E-01
  0.36389E+00  0.59145E-01
  0.37243E+00  0.58919E-01
  0.38107E+00  0.58661E-01
  0.38981E+00  0.58372E-01
  0.39865E+00  0.58053E-01
  0.40759E+00  0.57706E-01
  0.41663E+00  0.57332E-01
  0.42577E+00  0.56934E-01
  0.43501E+00  0.56509E-01
  0.44436E+00  0.56053E-01
  0.45382E+00  0.55567E-01
  0.46339E+00  0.55052E-01
  0.47306E+00  0.54508E-01
  0.48285E+00  0.53934E-01
  0.49275E+00  0.53328E-01
  0.50269E+00  0.52696E-01
  0.51258E+00  0.52048E-01
  0.52241E+00  0.51384E-01
  0.53220E+00  0.50704E-01
  0.54193E+00  0.50009E-01
  0.55161E+00  0.49300E-01
  0.56124E+00  0.48576E-01
  0.57082E+00  0.47835E-01
  0.58034E+00  0.47081E-01
  0.58981E+00  0.46317E-01
  0.59923E+00  0.45542E-01
  0.60860E+00  0.44754E-01
  0.61792E+00  0.43962E-01
  0.62718E+00  0.43161E-01
  0.63639E+00  0.42349E-01
  0.64555E+00  0.41529E-01
  0.65466E+00  0.40701E-01
  0.66371E+00  0.39866E-01
  0.67271E+00  0.39022E-01
  0.68166E+00  0.38172E-01
  0.69056E+00  0.37314E-01
  0.69941E+00  0.36449E-01
  0.70821E+00  0.35578E-01
  0.71696E+00  0.34701E-01
  0.72566E+00  0.33817E-01
  0.73431E+00  0.32928E-01
  0.74291E+00  0.32032E-01
  0.75146E+00  0.31131E-01
  0.75996E+00  0.30223E-01
  0.76842E+00  0.29309E-01
  0.77683E+00  0.28390E-01
  0.78519E+00  0.27464E-01
  0.79350E+00  0.26534E-01
  0.80177E+00  0.25598E-01
  0.80999E+00  0.24657E-01
  0.81817E+00  0.23712E-01
  0.82631E+00  0.22763E-01
  0.83440E+00  0.21809E-01
  0.84245E+00  0.20851E-01
  0.85046E+00  0.19889E-01
  0.85839E+00  0.18927E-01
  0.86622E+00  0.17967E-01
  0.87396E+00  0.17010E-01
  0.88160E+00  0.16055E-01
  0.88916E+00  0.15103E-01
  0.89663E+00  0.14152E-01
  0.90402E+00  0.13203E-01
  0.91133E+00  0.12255E-01
  0.91857E+00  0.11308E-01
  0.92573E+00  0.10361E-01
  0.93282E+00  0.94158E-02
  0.93984E+00  0.84717E-02
  0.94679E+00  0.75295E-02
  0.95368E+00  0.65893E-02
  0.96050E+00  0.56502E-02
  0.96726E+00  0.47110E-02
  0.97395E+00  0.37744E-02
  0.98057E+00  0.28378E-02
  0.98713E+00  0.18956E-02
  0.99360E+00  0.94892E-03
  0.10000E+01  0.00000E+00
  0.12458E+02  0.99901E+00
  0.12334E+02  0.19911E+01
  0.12127E+02  0.29693E+01
  0.11839E+02  0.39270E+01
  0.11473E+02  0.48573E+01
  0.11031E+02  0.57540E+01
  0.10515E+02  0.66107E+01
  0.99298E+01  0.74215E+01
  0.92792E+01  0.81808E+01
  0.85677E+01  0.88833E+01
  0.78002E+01  0.95241E+01
  0.69819E+01  0.10099E+02
  0.61187E+01  0.10603E+02
  0.52165E+01  0.11034E+02
  0.42815E+01  0.11389E+02
  0.33202E+01  0.11664E+02
  0.23394E+01  0.11858E+02
  0.13458E+01  0.11970E+02
  0.34637E+00  0.11999E+02
 -0.65202E+00  0.11945E+02
 -0.16424E+01  0.11807E+02
 -0.26179E+01  0.11588E+02
 -0.35718E+01  0.11288E+02
 -0.44974E+01  0.10910E+02
 -0.53883E+01  0.10456E+02
 -0.62384E+01  0.99295E+01
 -0.70416E+01  0.93340E+01
 -0.77925E+01  0.86738E+01
 -0.84858E+01  0.79533E+01
 -0.91167E+01  0.71776E+01
 -0.96809E+01  0.63521E+01
 -0.10174E+02  0.54825E+01
 -0.10594E+02  0.45748E+01
 -0.10936E+02  0.36354E+01
 -0.11199E+02  0.26707E+01
 -0.11381E+02  0.16874E+01
 -0.11480E+02  0.69248E+00
 -0.11496E+02 -0.30728E+00
 -0.11429E+02 -0.13049E+01
 -0.11279E+02 -0.22935E+01
 -0.11047E+02 -0.32662E+01
 -0.10735E+02 -0.42162E+01
 -0.10345E+02 -0.51369E+01
 -0.98795E+01 -0.60220E+01
 -0.93421E+01 -0.68654E+01
 -0.87363E+01 -0.76610E+01
 -0.80662E+01 -0.84035E+01
 -0.73367E+01 -0.90877E+01
 -0.65525E+01 -0.97089E+01
 -0.57193E+01 -0.10263E+02
 -0.48426E+01 -0.10745E+02
 -0.39286E+01 -0.11153E+02
 -0.29835E+01 -0.11483E+02
 -0.20138E+01 -0.11734E+02
 -0.10261E+01 -0.11903E+02
 -0.27264E-01 -0.11988E+02
  0.97598E+00 -0.11991E+02
  0.19767E+01 -0.11909E+02
  0.29681E+01 -0.11743E+02
  0.39433E+01 -0.11495E+02
  0.48956E+01 -0.11166E+02
  0.58183E+01 -0.10757E+02
  0.67049E+01 -0.10271E+02
  0.75492E+01 -0.97113E+01
  0.83449E+01 -0.90806E+01
  0.90862E+01 -0.83832E+01
  0.97674E+01 -0.76233E+01
  0.10383E+02 -0.68061E+01
  0.10928E+02 -0.59369E+01
  0.11399E+02 -0.50218E+01
  0.11790E+02 -0.40672E+01
  0.12098E+02 -0.30800E+01
  0.12320E+02 -0.20678E+01
  0.12455E+02 -0.10384E+01
  0.12500E+02  0.20981E-05
  0.84631E+00 -0.27603E-01
  0.92757E+00 -0.16396E-01
  0.71910E-01  0.45784E-01
  0.81423E+00 -0.31556E-01
  0.83037E+00 -0.29590E-01
  0.51888E+00 -0.60517E-01
  0.53847E+00 -0.59051E-01
  0.97145E+00  0.10257E-01
  0.83928E+00  0.28564E-01
  0.90118E+00  0.20317E-01
  0.49905E+00 -0.61903E-01
  0.30983E+00 -0.67156E-01
  0.47916E+00 -0.63016E-01
  0.90024E-01 -0.49868E-01
  0.45965E+00 -0.63923E-01
 -0.30008E-02 -0.34822E-02
  0.44055E+00 -0.64718E-01
  0.99784E+00 -0.58942E-02
  0.42185E+00 -0.65404E-01
  0.22697E+00 -0.65004E-01
  0.40356E+00 -0.65982E-01
  0.62373E+00 -0.51830E-01
  0.38565E+00 -0.66441E-01
  0.69582E+00 -0.44795E-01
  0.35953E+00 -0.66928E-01
  0.20611E+00 -0.63846E-01
  0.21994E+00 -0.64647E-01
  0.17939E+00 -0.61870E-01
  0.19259E+00 -0.62918E-01
  0.26336E+00 -0.66394E-01
  0.32603E+00 -0.67193E-01
  0.58640E+00 -0.55148E-01
  0.76467E+00 -0.37353E-01
  0.79790E+00 -0.33504E-01
  0.16649E+00 -0.60720E-01
  0.99185E+00 -0.67275E-02
  0.14767E+00 -0.58748E-01
  0.89938E+00 -0.20413E-01
  0.84689E-01 -0.48774E-01
  0.54817E+00 -0.58294E-01
  0.74266E-01 -0.46417E-01
  0.72761E-02 -0.18945E-01
  0.64172E-01 -0.43886E-01
  0.79429E-01 -0.47619E-01
  0.35829E-01 -0.34700E-01
  0.18595E+00 -0.62406E-01
  0.14769E-01 -0.24436E-01
  0.37686E+00 -0.66631E-01
  0.78967E+00 -0.34473E-01
  0.48907E+00 -0.62501E-01
  0.77305E+00 -0.36398E-01
  0.82232E+00 -0.30574E-01
  0.75623E+00 -0.38302E-01
  0.89210E+00 -0.21429E-01
  0.73922E+00 -0.40186E-01
  0.92066E+00 -0.17393E-01
  0.72201E+00 -0.42047E-01
  0.93438E+00 -0.15404E-01
  0.70460E+00 -0.43885E-01
  0.96076E+00 -0.11500E-01
  0.68700E+00 -0.45699E-01
  0.97344E+00 -0.95828E-02
  0.66918E+00 -0.47489E-01
  0.85419E+00 -0.26583E-01
  0.65116E+00 -0.49250E-01
  0.90657E+00 -0.19402E-01
  0.63293E+00 -0.50978E-01
  0.39848E-02 -0.15725E-01
  0.61448E+00 -0.52674E-01
  0.18772E-01 -0.26799E-01
  0.59582E+00 -0.54334E-01
  0.40323E-01 -0.36417E-01
  0.57693E+00 -0.55951E-01
  0.49619E-01 -0.39616E-01
  0.55782E+00 -0.57526E-01
  0.87724E+00 -0.23477E-01
  0.35101E+00 -0.67038E-01
  0.33426E+00 -0.67170E-01
  0.10091E+00 -0.51933E-01
  0.31788E+00 -0.67188E-01
  0.11212E+00 -0.53867E-01
  0.30186E+00 -0.67096E-01
  0.13551E+00 -0.57251E-01
  0.28620E+00 -0.66896E-01
  0.25592E+00 -0.66172E-01
  0.27089E+00 -0.66589E-01
  0.24128E+00 -0.65647E-01
  0.94775E+00 -0.13440E-01
  0.12366E+00 -0.55632E-01
  0.45005E+00 -0.64334E-01
  0.52870E+00 -0.59792E-01
  0.12955E+00 -0.56458E-01
  0.86966E+00 -0.24509E-01
  0.66020E+00 -0.48373E-01
  0.21299E+00 -0.64261E-01
  0.41266E+00 -0.65707E-01
  0.59228E-01 -0.42528E-01
  0.16015E+00 -0.60099E-01
  0.97965E+00 -0.86315E-02
  0.95430E+00 -0.12467E-01
  0.73064E+00 -0.41119E-01
  0.78138E+00 -0.35438E-01
  0.22897E-01 -0.28962E-01
  0.96714E+00 -0.10538E-01
  0.64207E+00 -0.50118E-01
  0.10646E+00 -0.52917E-01
  0.29399E+00 -0.67009E-01
  0.10242E-02 -0.12020E-01
  0.54371E-01 -0.41101E-01
  0.71333E+00 -0.42969E-01
  0.56740E+00 -0.56744E-01
  0.83836E+00 -0.28602E-01
  0.91366E+00 -0.18395E-01
  0.10963E-01 -0.21883E-01
  0.94111E+00 -0.14418E-01
  0.46935E+00 -0.63483E-01
  0.19931E+00 -0.63400E-01
  0.39456E+00 -0.66227E-01
  0.80609E+00 -0.32530E-01
  0.27084E-01 -0.30971E-01
  0.17291E+00 -0.61309E-01
  0.67811E+00 -0.46597E-01
  0.43115E+00 -0.65075E-01
  0.34259E+00 -0.67118E-01
  0.14155E+00 -0.58017E-01
  0.27850E+00 -0.66757E-01
 -0.13159E-02 -0.80201E-02
  0.88472E+00 -0.22451E-01
  0.43151E-01  0.37379E-01
  0.74775E+00 -0.39247E-01
  0.44932E-01 -0.38062E-01
 -0.32527E-02  0.19715E-02
  0.60518E+00 -0.53509E-01
  0.62311E-02  0.17971E-01
  0.99764E+00  0.61417E-02
  0.66931E-01  0.44541E-01
  0.85529E+00  0.26527E-01
  0.89375E+00  0.21341E-01
  0.93012E+00  0.16261E-01
  0.79847E+00  0.33494E-01
  0.41244E+00  0.65641E-01
  0.26463E+00  0.66364E-01
  0.56669E+00  0.56807E-01
  0.99122E+00  0.72427E-02
  0.87095E+00  0.24441E-01
  0.87864E+00  0.23402E-01
  0.97810E+00  0.92592E-02
  0.96472E+00  0.11254E-01
  0.95108E+00  0.13250E-01
  0.93717E+00  0.15254E-01
  0.81493E+00  0.31533E-01
  0.78184E+00  0.35438E-01
  0.86317E+00  0.25483E-01
  0.83121E+00  0.29557E-01
  0.95793E+00  0.12252E-01
  0.60462E+00  0.53562E-01
  0.62327E+00  0.51882E-01
  0.70460E+00  0.43919E-01
  0.91580E+00  0.18284E-01
  0.80672E+00  0.32515E-01
  0.75653E+00  0.38316E-01
  0.73941E+00  0.40207E-01
  0.72210E+00  0.42074E-01
  0.84732E+00  0.27558E-01
  0.77345E+00  0.36403E-01
  0.54741E+00  0.58350E-01
  0.43077E+00  0.65025E-01
  0.52792E+00  0.59833E-01
  0.44953E+00  0.64305E-01
  0.48834E+00  0.62507E-01
  0.46871E+00  0.63471E-01
  0.58576E+00  0.55207E-01
  0.50822E+00  0.61255E-01
  0.90853E+00  0.19301E-01
  0.61397E+00  0.52725E-01
  0.69577E+00  0.44832E-01
  0.36836E+00  0.66711E-01
  0.33484E+00  0.67084E-01
  0.30275E+00  0.67030E-01
  0.28725E+00  0.66832E-01
  0.94416E+00  0.14250E-01
  0.35142E+00  0.66944E-01
  0.31862E+00  0.67117E-01
  0.38570E+00  0.66369E-01
  0.67795E+00  0.46639E-01
  0.65993E+00  0.48419E-01
  0.34230E-01  0.33999E-01
  0.98198E-02  0.21003E-01
  0.52408E-01  0.40437E-01
  0.11461E+00  0.54201E-01
  0.76501E+00  0.37362E-01
  0.73078E+00  0.41143E-01
  0.13783E+00  0.57491E-01
  0.82309E+00  0.30546E-01
  0.62015E-01  0.43242E-01
  0.12607E+00  0.55907E-01
 -0.18527E-02  0.67363E-02
  0.25639E-01  0.30250E-01
  0.30716E-02  0.14641E-01
  0.69187E-01 -0.45177E-01
  0.42156E+00  0.65343E-01
  0.18788E+00  0.62495E-01
  0.25725E+00  0.66152E-01
  0.22857E+00  0.65005E-01
  0.10346E+00  0.52333E-01
  0.17469E-01  0.26027E-01
  0.92649E-01  0.50319E-01
  0.82123E-01  0.48155E-01
  0.20115E+00  0.63455E-01
  0.17494E+00  0.61415E-01
  0.24274E+00  0.65635E-01
  0.21471E+00  0.64285E-01
  0.59522E+00  0.54391E-01
  0.45907E+00  0.63902E-01
  0.51809E+00  0.60552E-01
  0.49828E+00  0.61920E-01
  0.57626E+00  0.56013E-01
  0.53769E+00  0.59098E-01
  0.92300E+00  0.17271E-01
  0.64171E+00  0.50166E-01
  0.47847E+00  0.63012E-01
  0.55708E+00  0.57587E-01
  0.98016E-01  0.51341E-01
  0.18137E+00  0.61966E-01
  0.20789E+00  0.63885E-01
  0.44010E+00  0.64679E-01
  0.23561E+00  0.65332E-01
  0.24996E+00  0.65910E-01
  0.19448E+00  0.62992E-01
  0.22160E+00  0.64657E-01
  0.87350E-01  0.49261E-01
  0.16858E+00  0.60841E-01
  0.13553E-01  0.23622E-01
  0.38633E-01  0.35724E-01
  0.76968E-01  0.46992E-01
  0.98579E+00 -0.76799E-02
  0.29896E-01  0.32186E-01
  0.12030E+00  0.55072E-01
  0.28761E-03  0.10825E-01
  0.47748E-01  0.38942E-01
  0.21530E-01  0.28223E-01
  0.10900E+00  0.53288E-01
  0.57167E-01  0.41875E-01
  0.16229E+00  0.60243E-01
  0.13191E+00  0.56712E-01
  0.14992E+00  0.58944E-01
  0.14384E+00  0.58238E-01
  0.27209E+00  0.66543E-01
  0.15607E+00  0.59611E-01
  0.32669E+00  0.67114E-01
  0.27963E+00  0.66700E-01
  0.31064E+00  0.67089E-01
  0.29496E+00  0.66943E-01
  0.40343E+00  0.65910E-01
  0.34308E+00  0.67026E-01
  0.37699E+00  0.66555E-01
  0.35984E+00  0.66839E-01
  0.71337E+00  0.43000E-01
  0.65085E+00  0.49297E-01
  0.68688E+00  0.45739E-01
  0.66897E+00  0.47533E-01
  0.79018E+00  0.34468E-01
  0.74799E+00  0.39264E-01
  0.86198E+00 -0.25546E-01
  0.31417E-01 -0.32895E-01
  0.98470E+00  0.82552E-02
  0.88624E+00  0.22369E-01
  0.63251E+00  0.51029E-01
  0.39452E+00  0.66154E-01
  0.50900E+00 -0.61227E-01
  0.11785E+00 -0.54771E-01
  0.24856E+00 -0.65924E-01
  0.95431E-01 -0.50919E-01
  0.15387E+00 -0.59443E-01
  0.23408E+00 -0.65339E-01
  0.36814E+00 -0.66795E-01
  0.18216E+00 -0.68452E-01
  0.20915E+00 -0.70671E-01
  0.55374E+00 -0.67208E-01
  0.62915E+00 -0.60275E-01
  0.33017E+00 -0.75117E-01
  0.23020E+00 -0.72012E-01
  0.60408E-01 -0.47909E-01
  0.65278E-02 -0.23667E-01
  0.85909E+00 -0.33586E-01
  0.86682E+00 -0.32450E-01
  0.10043E+01 -0.49045E-02
  0.93193E+00 -0.22484E-01
  0.76978E+00 -0.44962E-01
  0.41072E-01 -0.41598E-01
  0.10274E+00 -0.57758E-01
  0.31382E+00 -0.74930E-01
  0.91722E-01 -0.55571E-01
  0.26693E+00 -0.73737E-01
  0.32195E+00 -0.75037E-01
  0.54405E+00 -0.68023E-01
  0.36396E+00 -0.75151E-01
  0.85124E+00 -0.34705E-01
 -0.42965E-02  0.10620E-01
  0.38144E+00 -0.75013E-01
  0.81923E+00 -0.38881E-01
 -0.35921E-02 -0.12036E-01
  0.96488E+00 -0.17182E-01
  0.97197E-01 -0.56682E-01
 -0.63028E-02  0.54557E-02
  0.15011E+00 -0.65043E-01
  0.70109E+00 -0.52810E-01
  0.96905E+00  0.17249E-01
  0.22475E+00  0.71540E-01
  0.83620E+00  0.36850E-01
  0.54327E+00  0.68088E-01
  0.78694E+00  0.42999E-01
  0.75318E+00  0.47019E-01
  0.36422E+00  0.74984E-01
  0.43577E+00  0.73826E-01
  0.52370E+00  0.69657E-01
  0.51383E+00  0.70419E-01
  0.56264E+00  0.66460E-01
  0.79527E+00  0.41982E-01
  0.77857E+00  0.44011E-01
  0.34791E-01  0.39047E-01
  0.43967E-01  0.42522E-01
  0.24608E+00  0.72715E-01
  0.33079E+00  0.74947E-01
  0.25337E+00  0.73053E-01
  0.28331E+00  0.74102E-01
  0.26074E+00  0.73360E-01
  0.27604E-02 -0.20268E-01
  0.11093E+00  0.59121E-01
  0.93870E+00 -0.21409E-01
  0.39326E-01  0.40828E-01
  0.18412E+00  0.68488E-01
  0.68231E-01  0.49928E-01
  0.40820E+00  0.74461E-01
  0.60072E+00  0.63037E-01
  0.96229E+00  0.18310E-01
  0.10041E+01  0.51104E-02
  0.13412E+00  0.62794E-01
  0.53704E-02  0.22630E-01
  0.25955E-01  0.35206E-01
 -0.70011E-02 -0.93430E-03
 -0.58456E-02 -0.71202E-02
 -0.65574E-03 -0.16397E-01
  0.86310E-01 -0.54421E-01
  0.89672E+00 -0.27958E-01
  0.90395E+00 -0.26851E-01
  0.82730E+00 -0.37852E-01
  0.52449E+00 -0.69620E-01
  0.53430E+00 -0.68829E-01
  0.92754E+00  0.23646E-01
  0.89845E+00  0.27994E-01
  0.94537E+00 -0.20341E-01
  0.23739E+00 -0.72413E-01
  0.59189E+00 -0.63822E-01
  0.69228E+00 -0.53766E-01
  0.21609E+00 -0.71149E-01
  0.22311E+00 -0.71590E-01
  0.18878E+00 -0.69050E-01
  0.25943E+00 -0.73445E-01
  0.76137E+00 -0.45961E-01
  0.79472E+00 -0.41934E-01
  0.10517E-01 -0.26663E-01
  0.75697E-01 -0.51963E-01
  0.80956E-01 -0.53222E-01
  0.37266E+00 -0.75096E-01
  0.48461E+00 -0.72310E-01
  0.49464E+00 -0.71809E-01
  0.92508E+00 -0.23566E-01
  0.97121E+00 -0.16143E-01
  0.61992E+00 -0.61175E-01
  0.14598E-01 -0.29296E-01
  0.36446E-01 -0.39824E-01
  0.58244E+00 -0.64685E-01
  0.45799E-01 -0.43292E-01
  0.50576E-01 -0.44898E-01
  0.87445E+00 -0.31317E-01
  0.35538E+00 -0.75185E-01
  0.11412E+00 -0.59813E-01
  0.10838E+00 -0.58805E-01
  0.11993E+00 -0.60777E-01
  0.30579E+00 -0.74796E-01
  0.44567E+00 -0.73678E-01
  0.45524E+00 -0.73380E-01
  0.12581E+00 -0.61702E-01
  0.13176E+00 -0.62592E-01
  0.65652E+00 -0.57529E-01
  0.66554E+00 -0.56598E-01
  0.40837E+00 -0.74607E-01
  0.41755E+00 -0.74414E-01
  0.55443E-01 -0.46432E-01
  0.15638E+00 -0.65792E-01
  0.16272E+00 -0.66503E-01
  0.97746E+00 -0.15109E-01
  0.95196E+00 -0.19281E-01
  0.95846E+00 -0.18229E-01
  0.72722E+00 -0.49908E-01
  0.73583E+00 -0.48929E-01
  0.77814E+00 -0.43957E-01
  0.78646E+00 -0.42948E-01
  0.18822E-01 -0.31719E-01
  0.63833E+00 -0.59368E-01
  0.64745E+00 -0.58452E-01
  0.28999E+00 -0.74450E-01
  0.29784E+00 -0.74636E-01
  0.70985E+00 -0.51848E-01
  0.71856E+00 -0.50881E-01
  0.56336E+00 -0.66381E-01
  0.57293E+00 -0.65538E-01
  0.83532E+00 -0.36819E-01
  0.84330E+00 -0.35779E-01
  0.91109E+00 -0.25750E-01
  0.91813E+00 -0.24655E-01
  0.46492E+00 -0.73054E-01
  0.47471E+00 -0.72702E-01
  0.19549E+00 -0.69623E-01
  0.20228E+00 -0.70163E-01
  0.39031E+00 -0.74906E-01
  0.39929E+00 -0.74771E-01
  0.80294E+00 -0.40916E-01
  0.81110E+00 -0.39898E-01
  0.23092E-01 -0.33924E-01
  0.16913E+00 -0.67181E-01
  0.17561E+00 -0.67830E-01
  0.67451E+00 -0.55660E-01
  0.68342E+00 -0.54716E-01
  0.42682E+00 -0.74195E-01
  0.43619E+00 -0.73950E-01
  0.33848E+00 -0.75170E-01
  0.34688E+00 -0.75195E-01
  0.13779E+00 -0.63448E-01
  0.14391E+00 -0.64260E-01
  0.27453E+00 -0.74001E-01
  0.28222E+00 -0.74239E-01
  0.88197E+00 -0.30191E-01
  0.88940E+00 -0.29071E-01
  0.63233E-01  0.48587E-01
  0.74439E+00 -0.47945E-01
  0.75290E+00 -0.46956E-01
  0.60129E+00 -0.62949E-01
  0.61063E+00 -0.62066E-01
  0.17003E-02  0.19106E-01
  0.88344E+00  0.30215E-01
  0.89099E+00  0.29101E-01
  0.35573E+00  0.75009E-01
  0.99549E+00  0.12889E-01
  0.98893E+00  0.14038E-01
  0.87580E+00  0.31337E-01
  0.98237E+00  0.15118E-01
  0.97574E+00  0.16187E-01
  0.95547E+00  0.19371E-01
  0.94858E+00  0.20434E-01
  0.94164E+00  0.21499E-01
  0.93462E+00  0.22570E-01
  0.86806E+00  0.32467E-01
  0.86023E+00  0.33603E-01
  0.92038E+00  0.24728E-01
  0.81177E+00  0.39938E-01
  0.80354E+00  0.40962E-01
  0.74461E+00  0.48012E-01
  0.73600E+00  0.48999E-01
  0.72734E+00  0.49980E-01
  0.85230E+00  0.34728E-01
  0.84427E+00  0.35809E-01
  0.55298E+00  0.67282E-01
  0.53351E+00  0.68880E-01
  0.48389E+00  0.72261E-01
  0.47403E+00  0.72635E-01
  0.59128E+00  0.63911E-01
  0.91315E+00  0.25816E-01
  0.90584E+00  0.26898E-01
  0.61943E+00  0.61264E-01
  0.61010E+00  0.62154E-01
  0.70106E+00  0.52892E-01
  0.69220E+00  0.53852E-01
  0.32266E+00  0.74876E-01
  0.29877E+00  0.74489E-01
  0.29100E+00  0.74306E-01
  0.68329E+00  0.54805E-01
  0.67432E+00  0.55751E-01
  0.66531E+00  0.56691E-01
  0.65624E+00  0.57623E-01
  0.92917E-02  0.25725E-01
  0.30350E-01  0.37185E-01
  0.21669E-01  0.33120E-01
  0.77015E+00  0.45019E-01
  0.76169E+00  0.46022E-01
  0.82810E+00  0.37882E-01
  0.81996E+00  0.38911E-01
  0.12822E+00  0.61924E-01
  0.65447E-01 -0.49318E-01
  0.70538E-01 -0.50663E-01
  0.42647E+00  0.74056E-01
  0.41729E+00  0.74269E-01
  0.21779E+00  0.71103E-01
  0.10531E+00  0.58110E-01
  0.99782E-01  0.57067E-01
  0.17467E-01  0.30883E-01
  0.94351E-01  0.55984E-01
  0.88985E-01  0.54867E-01
  0.83679E-01  0.53706E-01
  0.17763E+00  0.67876E-01
  0.46430E+00  0.72973E-01
  0.45469E+00  0.73284E-01
  0.50389E+00  0.71154E-01
  0.49388E+00  0.71787E-01
  0.58179E+00  0.64772E-01
  0.57224E+00  0.65623E-01
  0.64711E+00  0.58543E-01
  0.21091E+00  0.70641E-01
  0.20410E+00  0.70151E-01
  0.44517E+00  0.73569E-01
  0.23888E+00  0.72347E-01
  0.23177E+00  0.71954E-01
  0.19737E+00  0.69630E-01
  0.19070E+00  0.69075E-01
  0.17121E+00  0.67242E-01
  0.13302E-01  0.28422E-01
  0.78437E-01  0.52492E-01
  0.73284E-01  0.51228E-01
  0.98364E+00 -0.14078E-01
  0.99565E+00 -0.12099E-01
  0.98974E+00 -0.13047E-01
  0.12239E+00  0.61025E-01
  0.11662E+00  0.60092E-01
 -0.15626E-02  0.15098E-01
  0.48652E-01  0.44133E-01
  0.58290E-01  0.47170E-01
  0.53420E-01  0.45682E-01
  0.16487E+00  0.66587E-01
  0.15858E+00  0.65908E-01
  0.15236E+00  0.65187E-01
  0.14620E+00  0.64429E-01
  0.14012E+00  0.63631E-01
  0.27571E+00  0.73875E-01
  0.26819E+00  0.73629E-01
  0.31461E+00  0.74776E-01
  0.30664E+00  0.74647E-01
  0.34733E+00  0.75012E-01
  0.33902E+00  0.74992E-01
  0.38152E+00  0.74858E-01
  0.37282E+00  0.74935E-01
  0.71863E+00  0.50957E-01
  0.70987E+00  0.51927E-01
  0.27445E-01 -0.35998E-01
  0.31914E-01 -0.37973E-01
  0.63794E+00  0.59456E-01
  0.62871E+00  0.60365E-01
  0.39921E+00  0.74619E-01
  0.39032E+00  0.74752E-01
  0.50467E+00 -0.71149E-01
  0.51462E+00 -0.70396E-01
  0.24465E+00 -0.72785E-01
  0.25200E+00 -0.73129E-01
  0.23338E+00 -0.79602E-01
  0.21213E+00 -0.78065E-01
  0.14406E-01 -0.34524E-01
  0.87845E-01 -0.60506E-01
  0.72400E+00  0.59487E-01
  0.96677E+00  0.24789E-01
  0.53921E+00  0.78568E-01
 -0.92496E-02  0.95724E-02
  0.18681E+00  0.75540E-01
  0.36000E+00  0.83770E-01
  0.26207E-01  0.40518E-01
  0.30713E-01  0.42547E-01
  0.45698E-02  0.27676E-01
  0.58099E-02 -0.28777E-01
  0.10064E+01  0.12910E-02
  0.10021E+01  0.11484E-01
  0.18485E+00 -0.75574E-01
 -0.85969E-02 -0.11356E-01
  0.55941E+00 -0.76760E-01
  0.10449E+00 -0.64047E-01
  0.63468E+00 -0.69325E-01
  0.11022E+00 -0.65162E-01
  0.61506E-01 -0.53698E-01
  0.33427E+00 -0.83724E-01
  0.77500E+00 -0.53121E-01
  0.87181E+00 -0.39801E-01
  0.69768E+00 -0.62414E-01
  0.58806E+00 -0.74041E-01
  0.35971E+00 -0.84026E-01
  0.83322E+00  0.45754E-01
  0.74992E+00  0.56380E-01
  0.60633E+00  0.72299E-01
  0.10709E+00  0.64340E-01
  0.18025E+00  0.74862E-01
  0.52941E+00  0.79407E-01
  0.79216E+00  0.51108E-01
  0.22082E+00  0.78488E-01
  0.21759E-01  0.38381E-01
  0.87782E-02  0.30817E-01
  0.32665E+00  0.83297E-01
  0.36990E-01 -0.45327E-01
 -0.57220E-02 -0.16639E-01
  0.78381E+00  0.52170E-01
  0.54973E+00 -0.77629E-01
  0.59750E+00 -0.73115E-01
  0.24064E+00 -0.80075E-01
  0.27046E+00 -0.81699E-01
  0.16601E-02 -0.25275E-01
  0.86413E+00 -0.41043E-01
  0.93643E+00 -0.28969E-01
  0.99370E+00 -0.18818E-01
  0.98776E+00 -0.19877E-01
  0.31777E+00 -0.83371E-01
  0.32597E+00 -0.83561E-01
  0.36837E+00 -0.84081E-01
  0.38598E+00 -0.84120E-01
  0.85632E+00 -0.42276E-01
  0.37713E+00 -0.84113E-01
  0.93325E-01 -0.61721E-01
  0.98866E-01 -0.62900E-01
  0.70647E+00 -0.61402E-01
  0.95998E+00  0.25918E-01
  0.43136E+00  0.83528E-01
  0.51955E+00  0.80231E-01
  0.50962E+00  0.81034E-01
  0.44688E-01  0.48043E-01
  0.31853E+00  0.83117E-01
  0.27928E+00  0.81823E-01
  0.24938E+00  0.80388E-01
  0.25674E+00  0.80798E-01
 -0.22394E-02 -0.21238E-01
  0.11279E+00  0.65417E-01
  0.39954E-01  0.46311E-01
  0.35278E-01  0.44470E-01
  0.40387E+00  0.83825E-01
 -0.65950E-02  0.15097E-01
 -0.10815E-01  0.27156E-02
 -0.10547E-01 -0.47976E-02
  0.90149E+00 -0.34910E-01
  0.90866E+00 -0.33706E-01
  0.82433E+00 -0.46743E-01
  0.53021E+00 -0.79360E-01
  0.54001E+00 -0.78500E-01
  0.92508E+00  0.31616E-01
  0.89587E+00  0.36277E-01
  0.94314E+00 -0.27805E-01
  0.26288E+00 -0.81331E-01
  0.21915E+00 -0.78609E-01
  0.22622E+00 -0.79106E-01
  0.76661E+00 -0.54174E-01
  0.77046E-01 -0.57941E-01
  0.82415E-01 -0.59261E-01
  0.49014E+00 -0.82360E-01
  0.92963E+00 -0.30141E-01
  0.96913E+00 -0.23235E-01
  0.62547E+00 -0.70284E-01
  0.10077E-01 -0.31824E-01
  0.41744E-01 -0.47163E-01
  0.46568E-01 -0.48913E-01
  0.11604E+00 -0.66237E-01
  0.30967E+00 -0.83155E-01
  0.45076E+00 -0.83421E-01
  0.12192E+00 -0.67270E-01
  0.12787E+00 -0.68266E-01
  0.66200E+00 -0.66403E-01
  0.41316E+00 -0.83980E-01
  0.51460E-01 -0.50580E-01
  0.56441E-01 -0.52162E-01
  0.15248E+00 -0.71843E-01
  0.15882E+00 -0.72652E-01
  0.97541E+00 -0.22112E-01
  0.10022E+01 -0.11184E-01
  0.94977E+00 -0.26650E-01
  0.95630E+00 -0.25504E-01
  0.96276E+00 -0.24365E-01
  0.73254E+00 -0.58336E-01
  0.78334E+00 -0.52063E-01
  0.79164E+00 -0.51001E-01
  0.64384E+00 -0.68358E-01
  0.65294E+00 -0.67384E-01
  0.29372E+00 -0.82647E-01
  0.30165E+00 -0.82914E-01
  0.71521E+00 -0.60386E-01
  0.72390E+00 -0.59363E-01
  0.56902E+00 -0.75865E-01
  0.57857E+00 -0.74958E-01
  0.83238E+00 -0.45662E-01
  0.84039E+00 -0.44576E-01
  0.84838E+00 -0.43458E-01
  0.91575E+00 -0.32510E-01
  0.92273E+00 -0.31322E-01
  0.46042E+00 -0.83217E-01
  0.47018E+00 -0.82986E-01
  0.48006E+00 -0.82723E-01
  0.19154E+00 -0.76241E-01
  0.19833E+00 -0.76880E-01
  0.20520E+00 -0.77488E-01
  0.40400E+00 -0.84055E-01
  0.39494E+00 -0.84101E-01
  0.79988E+00 -0.49934E-01
  0.80807E+00 -0.48867E-01
  0.81622E+00 -0.47817E-01
  0.18800E-01 -0.36999E-01
  0.16523E+00 -0.73426E-01
  0.17170E+00 -0.74169E-01
  0.17824E+00 -0.74884E-01
  0.67100E+00 -0.65414E-01
  0.67994E+00 -0.64420E-01
  0.68884E+00 -0.63419E-01
  0.42241E+00 -0.83879E-01
  0.43176E+00 -0.83752E-01
  0.44121E+00 -0.83600E-01
  0.34265E+00 -0.83862E-01
  0.35114E+00 -0.83968E-01
  0.13390E+00 -0.69225E-01
  0.14002E+00 -0.70142E-01
  0.14621E+00 -0.70999E-01
  0.27813E+00 -0.82041E-01
  0.28588E+00 -0.82357E-01
  0.87938E+00 -0.38566E-01
  0.88685E+00 -0.37339E-01
  0.89421E+00 -0.36121E-01
  0.64368E-01  0.54339E-01
  0.59331E-01  0.52869E-01
  0.74113E+00 -0.57303E-01
  0.74967E+00 -0.56265E-01
  0.75816E+00 -0.55222E-01
  0.60688E+00 -0.72180E-01
  0.61620E+00 -0.71236E-01
  0.47799E-03  0.24052E-01
  0.88837E+00  0.37476E-01
  0.99339E+00  0.20164E-01
  0.88078E+00  0.38686E-01
  0.98677E+00  0.21369E-01
  0.98016E+00  0.22519E-01
  0.97349E+00  0.23657E-01
  0.95313E+00  0.27048E-01
  0.94622E+00  0.28180E-01
  0.93924E+00  0.29317E-01
  0.93220E+00  0.30462E-01
  0.87310E+00  0.39906E-01
  0.86532E+00  0.41136E-01
  0.80872E+00  0.48972E-01
  0.80046E+00  0.50041E-01
  0.74133E+00  0.57420E-01
  0.73269E+00  0.58456E-01
  0.85743E+00  0.42365E-01
  0.84940E+00  0.43554E-01
  0.84131E+00  0.44674E-01
  0.55866E+00  0.76846E-01
  0.54896E+00  0.77715E-01
  0.47935E+00  0.82601E-01
  0.59690E+00  0.73232E-01
  0.91789E+00  0.32777E-01
  0.91062E+00  0.33944E-01
  0.90328E+00  0.35091E-01
  0.61569E+00  0.71358E-01
  0.69762E+00  0.62547E-01
  0.29470E+00  0.82412E-01
  0.28694E+00  0.82128E-01
  0.68873E+00  0.63556E-01
  0.67978E+00  0.64560E-01
  0.67079E+00  0.65556E-01
  0.66174E+00  0.66546E-01