 VARIABLES= "X", "Y"
 ZONE N=   15235 E=   30231 F=FEPOINT  ET=triangle
  0.98003E+00  0.17884E-01
  0.95859E+00  0.19416E-01
  0.93570E+00  0.19145E-01
  0.91145E+00  0.16682E-01
  0.88591E+00  0.11970E-01
  0.85922E+00  0.46161E-02
  0.83120E+00 -0.45508E-02
  0.80242E+00 -0.14120E-01
  0.77267E+00 -0.23593E-01
  0.74177E+00 -0.32418E-01
  0.70967E+00 -0.40483E-01
  0.67637E+00 -0.47750E-01
  0.64193E+00 -0.54577E-01
  0.60634E+00 -0.61028E-01
  0.56954E+00 -0.66978E-01
  0.53149E+00 -0.72246E-01
  0.49211E+00 -0.76433E-01
  0.45311E+00 -0.79222E-01
  0.41656E+00 -0.80802E-01
  0.38234E+00 -0.81541E-01
  0.35034E+00 -0.81671E-01
  0.32043E+00 -0.81334E-01
  0.29250E+00 -0.80575E-01
  0.26641E+00 -0.79523E-01
  0.24207E+00 -0.78197E-01
  0.21938E+00 -0.76637E-01
  0.19823E+00 -0.74909E-01
  0.17853E+00 -0.73029E-01
  0.16020E+00 -0.71005E-01
  0.14314E+00 -0.68876E-01
  0.12727E+00 -0.66683E-01
  0.11232E+00 -0.64352E-01
  0.97899E-01 -0.61835E-01
  0.84023E-01 -0.59078E-01
  0.70692E-01 -0.56046E-01
  0.57916E-01 -0.52673E-01
  0.45757E-01 -0.48777E-01
  0.34255E-01 -0.44311E-01
  0.23621E-01 -0.38921E-01
  0.14222E-01 -0.32260E-01
  0.67632E-02 -0.23996E-01
  0.19668E-02 -0.14367E-01
  0.60229E-04 -0.41472E-02
  0.34530E-03  0.58957E-02
  0.21691E-02  0.16008E-01
  0.55286E-02  0.26048E-01
  0.10699E-01  0.35652E-01
  0.17763E-01  0.44390E-01
  0.26848E-01  0.51563E-01
  0.37511E-01  0.56902E-01
  0.49006E-01  0.61238E-01
  0.61136E-01  0.64857E-01
  0.73817E-01  0.67906E-01
  0.86988E-01  0.70582E-01
  0.10062E+00  0.73034E-01
  0.11472E+00  0.75279E-01
  0.12932E+00  0.77391E-01
  0.14495E+00  0.79429E-01
  0.16168E+00  0.81395E-01
  0.17958E+00  0.83284E-01
  0.19875E+00  0.85075E-01
  0.21928E+00  0.86764E-01
  0.24126E+00  0.88336E-01
  0.26480E+00  0.89767E-01
  0.29003E+00  0.91030E-01
  0.31708E+00  0.92103E-01
  0.34608E+00  0.92934E-01
  0.37721E+00  0.93469E-01
  0.41063E+00  0.93666E-01
  0.44653E+00  0.93431E-01
  0.48513E+00  0.92673E-01
  0.52473E+00  0.91324E-01
  0.56343E+00  0.89382E-01
  0.60125E+00  0.86847E-01
  0.63820E+00  0.83656E-01
  0.67429E+00  0.79740E-01
  0.70952E+00  0.75074E-01
  0.74390E+00  0.69746E-01
  0.77744E+00  0.63875E-01
  0.81017E+00  0.57596E-01
  0.84210E+00  0.51052E-01
  0.87290E+00  0.44473E-01
  0.90178E+00  0.38085E-01
  0.92886E+00  0.31987E-01
  0.95424E+00  0.26202E-01
  0.97797E+00  0.20716E-01
  0.10000E+01  0.14943E-01
  0.12532E+01 -0.10198E+00
  0.12288E+01 -0.91865E-01
  0.12000E+01 -0.81542E-01
  0.11682E+01 -0.71939E-01
  0.11332E+01 -0.63199E-01
  0.10949E+01 -0.55357E-01
  0.10615E+01 -0.49654E-01
  0.10342E+01 -0.45547E-01
  0.10118E+01 -0.42433E-01
  0.99357E+00 -0.39983E-01
  0.97868E+00 -0.38021E-01
  0.96514E+00 -0.36225E-01
  0.95282E+00 -0.34673E-01
  0.94349E+00 -0.28334E-01
  0.94967E+00 -0.20188E-01
  0.96003E+00 -0.16203E-01
  0.97207E+00 -0.14188E-01
  0.98545E+00 -0.13100E-01
  0.10002E+01 -0.12685E-01
  0.10178E+01 -0.13360E-01
  0.10394E+01 -0.15647E-01
  0.10657E+01 -0.20308E-01
  0.10977E+01 -0.28293E-01
  0.11363E+01 -0.40621E-01
  0.11711E+01 -0.54352E-01
  0.12025E+01 -0.68732E-01
  0.12308E+01 -0.83387E-01
  0.12546E+01 -0.97508E-01
  0.12734E+01 -0.11047E+00
  0.21259E+01  0.19974E+01
  0.20459E+01  0.19941E+01
  0.19660E+01  0.19902E+01
  0.18862E+01  0.19856E+01
  0.18063E+01  0.19804E+01
  0.17265E+01  0.19745E+01
  0.16468E+01  0.19680E+01
  0.15671E+01  0.19608E+01
  0.14875E+01  0.19530E+01
  0.14080E+01  0.19445E+01
  0.13285E+01  0.19353E+01
  0.12491E+01  0.19254E+01
  0.11698E+01  0.19149E+01
  0.10906E+01  0.19037E+01
  0.10115E+01  0.18917E+01
  0.93247E+00  0.18790E+01
  0.85360E+00  0.18656E+01
  0.77485E+00  0.18515E+01
  0.69625E+00  0.18366E+01
  0.61779E+00  0.18209E+01
  0.53949E+00  0.18045E+01
  0.46136E+00  0.17873E+01
  0.38342E+00  0.17692E+01
  0.30566E+00  0.17504E+01
  0.22811E+00  0.17307E+01
  0.15080E+00  0.17101E+01
  0.73720E-01  0.16887E+01
 -0.31115E-02  0.16663E+01
 -0.79659E-01  0.16431E+01
 -0.15590E+00  0.16188E+01
 -0.23184E+00  0.15936E+01
 -0.30744E+00  0.15674E+01
 -0.38265E+00  0.15401E+01
 -0.45745E+00  0.15117E+01
 -0.53186E+00  0.14822E+01
 -0.60580E+00  0.14516E+01
 -0.67918E+00  0.14197E+01
 -0.75205E+00  0.13866E+01
 -0.82435E+00  0.13523E+01
 -0.89596E+00  0.13166E+01
 -0.96680E+00  0.12793E+01
 -0.10369E+01  0.12408E+01
 -0.11062E+01  0.12007E+01
 -0.11745E+01  0.11589E+01
 -0.12416E+01  0.11153E+01
 -0.13078E+01  0.10702E+01
 -0.13726E+01  0.10231E+01
 -0.14357E+01  0.97387E+00
 -0.14973E+01  0.92273E+00
 -0.15573E+01  0.86961E+00
 -0.16150E+01  0.81404E+00
 -0.16700E+01  0.75578E+00
 -0.17227E+01  0.69545E+00
 -0.17725E+01  0.63268E+00
 -0.18184E+01  0.56698E+00
 -0.18600E+01  0.49849E+00
 -0.18978E+01  0.42780E+00
 -0.19306E+01  0.35468E+00
 -0.19572E+01  0.27903E+00
 -0.19774E+01  0.20146E+00
 -0.19916E+01  0.12254E+00
 -0.19991E+01  0.42713E-01
 -0.19989E+01 -0.37469E-01
 -0.19911E+01 -0.11727E+00
 -0.19767E+01 -0.19614E+00
 -0.19562E+01 -0.27366E+00
 -0.19294E+01 -0.34922E+00
 -0.18963E+01 -0.42224E+00
 -0.18583E+01 -0.49284E+00
 -0.18165E+01 -0.56124E+00
 -0.17705E+01 -0.62682E+00
 -0.17205E+01 -0.68949E+00
 -0.16677E+01 -0.74973E+00
 -0.16126E+01 -0.80789E+00
 -0.15548E+01 -0.86336E+00
 -0.14947E+01 -0.91639E+00
 -0.14330E+01 -0.96746E+00
 -0.13699E+01 -0.10166E+01
 -0.13050E+01 -0.10636E+01
 -0.12388E+01 -0.11086E+01
 -0.11716E+01 -0.11521E+01
 -0.11033E+01 -0.11939E+01
 -0.10340E+01 -0.12339E+01
 -0.96378E+00 -0.12724E+01
 -0.89292E+00 -0.13096E+01
 -0.82127E+00 -0.13453E+01
 -0.74895E+00 -0.13795E+01
 -0.67606E+00 -0.14125E+01
 -0.60266E+00 -0.14444E+01
 -0.52870E+00 -0.14749E+01
 -0.45428E+00 -0.15043E+01
 -0.37946E+00 -0.15327E+01
 -0.30423E+00 -0.15599E+01
 -0.22862E+00 -0.15861E+01
 -0.15266E+00 -0.16113E+01
 -0.76415E-01 -0.16355E+01
  0.14391E-03 -0.16587E+01
  0.76986E-01 -0.16810E+01
  0.15408E+00 -0.17024E+01
  0.23140E+00 -0.17230E+01
  0.30895E+00 -0.17426E+01
  0.38672E+00 -0.17614E+01
  0.46467E+00 -0.17795E+01
  0.54280E+00 -0.17967E+01
  0.62111E+00 -0.18130E+01
  0.69958E+00 -0.18287E+01
  0.77819E+00 -0.18435E+01
  0.85694E+00 -0.18576E+01
  0.93582E+00 -0.18710E+01
  0.10148E+01 -0.18837E+01
  0.10939E+01 -0.18956E+01
  0.11731E+01 -0.19068E+01
  0.12524E+01 -0.19173E+01
  0.13318E+01 -0.19272E+01
  0.14113E+01 -0.19363E+01
  0.14909E+01 -0.19448E+01
  0.15705E+01 -0.19526E+01
  0.16502E+01 -0.19597E+01
  0.17299E+01 -0.19662E+01
  0.18097E+01 -0.19721E+01
  0.18895E+01 -0.19772E+01
  0.19694E+01 -0.19818E+01
  0.20493E+01 -0.19857E+01
  0.21293E+01 -0.19889E+01
  0.22092E+01 -0.19915E+01
  0.22892E+01 -0.19935E+01
  0.23692E+01 -0.19949E+01
  0.24492E+01 -0.19956E+01
  0.25292E+01 -0.19957E+01
  0.26092E+01 -0.19951E+01
  0.26892E+01 -0.19940E+01
  0.27692E+01 -0.19921E+01
  0.28491E+01 -0.19897E+01
  0.29291E+01 -0.19866E+01
  0.30090E+01 -0.19829E+01
  0.30889E+01 -0.19785E+01
  0.31687E+01 -0.19735E+01
  0.32485E+01 -0.19679E+01
  0.33283E+01 -0.19616E+01
  0.34080E+01 -0.19546E+01
  0.34876E+01 -0.19470E+01
  0.35672E+01 -0.19387E+01
  0.36467E+01 -0.19297E+01
  0.37261E+01 -0.19200E+01
  0.38054E+01 -0.19097E+01
  0.38847E+01 -0.18987E+01
  0.39638E+01 -0.18869E+01
  0.40429E+01 -0.18745E+01
  0.41218E+01 -0.18613E+01
  0.42006E+01 -0.18474E+01
  0.42792E+01 -0.18328E+01
  0.43577E+01 -0.18173E+01
  0.44361E+01 -0.18012E+01
  0.45142E+01 -0.17842E+01
  0.45922E+01 -0.17664E+01
  0.46701E+01 -0.17478E+01
  0.47477E+01 -0.17284E+01
  0.48251E+01 -0.17081E+01
  0.49022E+01 -0.16869E+01
  0.49791E+01 -0.16649E+01
  0.50558E+01 -0.16419E+01
  0.51321E+01 -0.16179E+01
  0.52081E+01 -0.15930E+01
  0.52838E+01 -0.15671E+01
  0.53592E+01 -0.15402E+01
  0.54341E+01 -0.15121E+01
  0.55087E+01 -0.14830E+01
  0.55827E+01 -0.14528E+01
  0.56563E+01 -0.14213E+01
  0.57293E+01 -0.13885E+01
  0.58018E+01 -0.13546E+01
  0.58737E+01 -0.13194E+01
  0.59447E+01 -0.12826E+01
  0.60151E+01 -0.12444E+01
  0.60847E+01 -0.12048E+01
  0.61533E+01 -0.11636E+01
  0.62208E+01 -0.11205E+01
  0.62872E+01 -0.10759E+01
  0.63525E+01 -0.10295E+01
  0.64162E+01 -0.98096E+00
  0.64782E+01 -0.93034E+00
  0.65388E+01 -0.87789E+00
  0.65972E+01 -0.82314E+00
  0.66530E+01 -0.76566E+00
  0.67065E+01 -0.70599E+00
  0.67573E+01 -0.64404E+00
  0.68045E+01 -0.57929E+00
  0.68474E+01 -0.51156E+00
  0.68864E+01 -0.44158E+00
  0.69210E+01 -0.36925E+00
  0.69496E+01 -0.29438E+00
  0.69717E+01 -0.21731E+00
  0.69878E+01 -0.13877E+00
  0.69975E+01 -0.59175E-01
  0.69998E+01  0.20973E-01
  0.69943E+01  0.10097E+00
  0.69819E+01  0.18018E+00
  0.69632E+01  0.25816E+00
  0.69385E+01  0.33443E+00
  0.69072E+01  0.40824E+00
  0.68706E+01  0.47957E+00
  0.68300E+01  0.54865E+00
  0.67853E+01  0.61522E+00
  0.67365E+01  0.67874E+00
  0.66844E+01  0.73969E+00
  0.66301E+01  0.79855E+00
  0.65731E+01  0.85486E+00
  0.65137E+01  0.90860E+00
  0.64525E+01  0.96024E+00
  0.63898E+01  0.10101E+01
  0.63254E+01  0.10577E+01
  0.62596E+01  0.11033E+01
  0.61927E+01  0.11473E+01
  0.61248E+01  0.11896E+01
  0.60557E+01  0.12301E+01
  0.59858E+01  0.12691E+01
  0.59151E+01  0.13067E+01
  0.58437E+01  0.13428E+01
  0.57716E+01  0.13775E+01
  0.56989E+01  0.14109E+01
  0.56257E+01  0.14431E+01
  0.55519E+01  0.14741E+01
  0.54776E+01  0.15038E+01
  0.54029E+01  0.15325E+01
  0.53278E+01  0.15601E+01
  0.52523E+01  0.15866E+01
  0.51764E+01  0.16121E+01
  0.51002E+01  0.16366E+01
  0.50237E+01  0.16602E+01
  0.49470E+01  0.16827E+01
  0.48699E+01  0.17044E+01
  0.47926E+01  0.17253E+01
  0.47151E+01  0.17452E+01
  0.46373E+01  0.17643E+01
  0.45593E+01  0.17826E+01
  0.44810E+01  0.18001E+01
  0.44026E+01  0.18167E+01
  0.43239E+01  0.18326E+01
  0.42450E+01  0.18478E+01
  0.41659E+01  0.18622E+01
  0.40865E+01  0.18759E+01
  0.40069E+01  0.18888E+01
  0.39270E+01  0.19011E+01
  0.38468E+01  0.19126E+01
  0.37663E+01  0.19235E+01
  0.36854E+01  0.19336E+01
  0.36041E+01  0.19432E+01
  0.35224E+01  0.19520E+01
  0.34402E+01  0.19601E+01
  0.33575E+01  0.19676E+01
  0.32742E+01  0.19745E+01
  0.31904E+01  0.19806E+01
  0.31060E+01  0.19861E+01
  0.30210E+01  0.19908E+01
  0.29353E+01  0.19949E+01
  0.28492E+01  0.19982E+01
  0.27625E+01  0.20009E+01
  0.26753E+01  0.20028E+01
  0.25878E+01  0.20039E+01
  0.25000E+01  0.20043E+01
  0.12752E+01 -0.11127E+00
  0.12772E+01 -0.11210E+00
  0.12793E+01 -0.11293E+00
  0.12814E+01 -0.11384E+00
  0.12837E+01 -0.11482E+00
  0.12862E+01 -0.11585E+00
  0.12888E+01 -0.11694E+00
  0.12915E+01 -0.11810E+00
  0.12944E+01 -0.11934E+00
  0.12974E+01 -0.12066E+00
  0.13006E+01 -0.12206E+00
  0.13040E+01 -0.12353E+00
  0.13076E+01 -0.12505E+00
  0.13115E+01 -0.12662E+00
  0.13156E+01 -0.12820E+00
  0.13199E+01 -0.12986E+00
  0.13245E+01 -0.13160E+00
  0.13294E+01 -0.13338E+00
  0.13346E+01 -0.13523E+00
  0.13401E+01 -0.13718E+00
  0.13460E+01 -0.13917E+00
  0.13522E+01 -0.14120E+00
  0.13589E+01 -0.14327E+00
  0.13659E+01 -0.14541E+00
  0.13734E+01 -0.14759E+00
  0.13814E+01 -0.14980E+00
  0.13899E+01 -0.15200E+00
  0.13990E+01 -0.15433E+00
  0.14087E+01 -0.15667E+00
  0.14192E+01 -0.15903E+00
  0.14305E+01 -0.16145E+00
  0.14428E+01 -0.16389E+00
  0.14561E+01 -0.16637E+00
  0.14705E+01 -0.16891E+00
  0.14860E+01 -0.17143E+00
  0.15029E+01 -0.17396E+00
  0.15211E+01 -0.17659E+00
  0.15408E+01 -0.17930E+00
  0.10486E+02  0.50108E+00
  0.10449E+02  0.10009E+01
  0.10387E+02  0.14983E+01
  0.10299E+02  0.19919E+01
  0.10187E+02  0.24805E+01
  0.10051E+02  0.29626E+01
  0.98898E+01  0.34373E+01
  0.97060E+01  0.39035E+01
  0.94992E+01  0.43601E+01
  0.92696E+01  0.48055E+01
  0.90175E+01  0.52385E+01
  0.87441E+01  0.56585E+01
  0.84505E+01  0.60645E+01
  0.81371E+01  0.64554E+01
  0.78041E+01  0.68299E+01
  0.74525E+01  0.71869E+01
  0.70836E+01  0.75260E+01
  0.66985E+01  0.78466E+01
  0.62979E+01  0.81476E+01
  0.58824E+01  0.84277E+01
  0.54531E+01  0.86864E+01
  0.50117E+01  0.89235E+01
  0.45591E+01  0.91387E+01
  0.40963E+01  0.93309E+01
  0.36242E+01  0.94991E+01
  0.31443E+01  0.96433E+01
  0.26578E+01  0.97637E+01
  0.21660E+01  0.98599E+01
  0.16699E+01  0.99313E+01
  0.11709E+01  0.99771E+01
  0.67017E+00  0.99978E+01
  0.16904E+00  0.99938E+01
 -0.33128E+00  0.99652E+01
 -0.82951E+00  0.99112E+01
 -0.13243E+01  0.98317E+01
 -0.18145E+01  0.97276E+01
 -0.22991E+01  0.95996E+01
 -0.27766E+01  0.94478E+01
 -0.32459E+01  0.92718E+01
 -0.37055E+01  0.90721E+01
 -0.41546E+01  0.88498E+01
 -0.45923E+01  0.86057E+01
 -0.50173E+01  0.83401E+01
 -0.54282E+01  0.80532E+01
 -0.58239E+01  0.77457E+01
 -0.62039E+01  0.74190E+01
 -0.65675E+01  0.70740E+01
 -0.69133E+01  0.67114E+01
 -0.72401E+01  0.63314E+01
 -0.75472E+01  0.59354E+01
 -0.78344E+01  0.55247E+01
 -0.81011E+01  0.51004E+01
 -0.83461E+01  0.46633E+01
 -0.85683E+01  0.42141E+01
 -0.87677E+01  0.37543E+01
 -0.89442E+01  0.32853E+01
 -0.90974E+01  0.28081E+01
 -0.92262E+01  0.23238E+01
 -0.93300E+01  0.18335E+01
 -0.94092E+01  0.13387E+01
 -0.94640E+01  0.84053E+00
 -0.94940E+01  0.34029E+00
 -0.94987E+01 -0.16083E+00
 -0.94776E+01 -0.66154E+00
 -0.94316E+01 -0.11606E+01
 -0.93612E+01 -0.16567E+01
 -0.92663E+01 -0.21488E+01
 -0.91464E+01 -0.26354E+01
 -0.90018E+01 -0.31152E+01
 -0.88336E+01 -0.35873E+01
 -0.86424E+01 -0.40505E+01
 -0.84284E+01 -0.45037E+01
 -0.81914E+01 -0.49453E+01
 -0.79323E+01 -0.53743E+01
 -0.76524E+01 -0.57899E+01
 -0.73523E+01 -0.61913E+01
 -0.70326E+01 -0.65772E+01
 -0.66934E+01 -0.69462E+01
 -0.63361E+01 -0.72975E+01
 -0.59619E+01 -0.76308E+01
 -0.55717E+01 -0.79453E+01
 -0.51662E+01 -0.82398E+01
 -0.47461E+01 -0.85130E+01
 -0.43128E+01 -0.87648E+01
 -0.38676E+01 -0.89950E+01
 -0.34116E+01 -0.92029E+01
 -0.29457E+01 -0.93876E+01
 -0.24710E+01 -0.95480E+01
 -0.19888E+01 -0.96845E+01
 -0.15004E+01 -0.97972E+01
 -0.10071E+01 -0.98856E+01
 -0.50996E+00 -0.99488E+01
 -0.10195E-01 -0.99864E+01
  0.49084E+00 -0.99992E+01
  0.99191E+00 -0.99873E+01
  0.14918E+01 -0.99506E+01
  0.19892E+01 -0.98884E+01
  0.24828E+01 -0.98008E+01
  0.29715E+01 -0.96890E+01
  0.34542E+01 -0.95532E+01
  0.39296E+01 -0.93935E+01
  0.43962E+01 -0.92095E+01
  0.48531E+01 -0.90021E+01
  0.52993E+01 -0.87722E+01
  0.57338E+01 -0.85206E+01
  0.61553E+01 -0.82473E+01
  0.65624E+01 -0.79524E+01
  0.69545E+01 -0.76371E+01
  0.73308E+01 -0.73025E+01
  0.76904E+01 -0.69493E+01
  0.80321E+01 -0.65778E+01
  0.83546E+01 -0.61885E+01
  0.86575E+01 -0.57827E+01
  0.89404E+01 -0.53617E+01
  0.92023E+01 -0.49260E+01
  0.94420E+01 -0.44764E+01
  0.96585E+01 -0.40139E+01
  0.98517E+01 -0.35397E+01
  0.10021E+02 -0.30552E+01
  0.10166E+02 -0.25613E+01
  0.10286E+02 -0.20594E+01
  0.10379E+02 -0.15507E+01
  0.10445E+02 -0.10368E+01
  0.10486E+02 -0.51940E+00
  0.10500E+02  0.00000E+00
  0.99997E+00  0.14742E-01
  0.98000E+00  0.17682E-01
  0.95858E+00  0.19213E-01
  0.93571E+00  0.18942E-01
  0.91148E+00  0.16481E-01
  0.88595E+00  0.11772E-01
  0.85928E+00  0.44220E-02
  0.83126E+00 -0.47442E-02
  0.80248E+00 -0.14313E-01
  0.77273E+00 -0.23787E-01
  0.74182E+00 -0.32614E-01
  0.70972E+00 -0.40680E-01
  0.67642E+00 -0.47948E-01
  0.64197E+00 -0.54776E-01
  0.60637E+00 -0.61227E-01
  0.56957E+00 -0.67178E-01
  0.53151E+00 -0.72448E-01
  0.49213E+00 -0.76635E-01
  0.45312E+00 -0.79424E-01
  0.41657E+00 -0.81004E-01
  0.38235E+00 -0.81744E-01
  0.35034E+00 -0.81874E-01
  0.32043E+00 -0.81537E-01
  0.29249E+00 -0.80778E-01
  0.26640E+00 -0.79726E-01
  0.24206E+00 -0.78399E-01
  0.21937E+00 -0.76839E-01
  0.19822E+00 -0.75111E-01
  0.17851E+00 -0.73231E-01
  0.16018E+00 -0.71206E-01
  0.14311E+00 -0.69077E-01
  0.12725E+00 -0.66884E-01
  0.11228E+00 -0.64552E-01
  0.97862E-01 -0.62034E-01
  0.83981E-01 -0.59277E-01
  0.70643E-01 -0.56242E-01
  0.57859E-01 -0.52867E-01
  0.45689E-01 -0.48968E-01
  0.34173E-01 -0.44496E-01
  0.23516E-01 -0.39095E-01
  0.14087E-01 -0.32412E-01
  0.65944E-02 -0.24111E-01
  0.17727E-02 -0.14432E-01
 -0.14183E-03 -0.41630E-02
  0.14316E-03  0.59166E-02
  0.19727E-02  0.16059E-01
  0.53420E-02  0.26129E-01
  0.10531E-01  0.35764E-01
  0.17620E-01  0.44535E-01
  0.26739E-01  0.51735E-01
  0.37430E-01  0.57088E-01
  0.48942E-01  0.61430E-01
  0.61083E-01  0.65052E-01
  0.73773E-01  0.68104E-01
  0.86950E-01  0.70781E-01
  0.10059E+00  0.73234E-01
  0.11469E+00  0.75479E-01
  0.12929E+00  0.77592E-01
  0.14492E+00  0.79630E-01
  0.16165E+00  0.81596E-01
  0.17956E+00  0.83486E-01
  0.19874E+00  0.85277E-01
  0.21927E+00  0.86966E-01
  0.24125E+00  0.88538E-01
  0.26479E+00  0.89970E-01
  0.29002E+00  0.91233E-01
  0.31707E+00  0.92305E-01
  0.34608E+00  0.93137E-01
  0.37720E+00  0.93672E-01
  0.41063E+00  0.93869E-01
  0.44653E+00  0.93633E-01
  0.48514E+00  0.92875E-01
  0.52474E+00  0.91527E-01
  0.56344E+00  0.89584E-01
  0.60126E+00  0.87049E-01
  0.63822E+00  0.83858E-01
  0.67432E+00  0.79942E-01
  0.70955E+00  0.75275E-01
  0.74393E+00  0.69946E-01
  0.77748E+00  0.64074E-01
  0.81021E+00  0.57795E-01
  0.84215E+00  0.51251E-01
  0.87294E+00  0.44671E-01
  0.90182E+00  0.38283E-01
  0.92891E+00  0.32185E-01
  0.95428E+00  0.26399E-01
  0.97802E+00  0.20913E-01
  0.10001E+01  0.15139E-01
  0.15408E+01 -0.17950E+00
  0.15211E+01 -0.17679E+00
  0.15029E+01 -0.17416E+00
  0.14860E+01 -0.17163E+00
  0.14704E+01 -0.16911E+00
  0.14560E+01 -0.16657E+00
  0.14427E+01 -0.16409E+00
  0.14305E+01 -0.16165E+00
  0.14191E+01 -0.15923E+00
  0.14087E+01 -0.15686E+00
  0.13990E+01 -0.15453E+00
  0.13899E+01 -0.15220E+00
  0.13814E+01 -0.15000E+00
  0.13734E+01 -0.14779E+00
  0.13658E+01 -0.14560E+00
  0.13588E+01 -0.14347E+00
  0.13522E+01 -0.14139E+00
  0.13459E+01 -0.13936E+00
  0.13401E+01 -0.13737E+00
  0.13346E+01 -0.13542E+00
  0.13294E+01 -0.13357E+00
  0.13245E+01 -0.13179E+00
  0.13199E+01 -0.13005E+00
  0.13155E+01 -0.12839E+00
  0.13114E+01 -0.12680E+00
  0.13076E+01 -0.12524E+00
  0.13039E+01 -0.12372E+00
  0.13005E+01 -0.12224E+00
  0.12973E+01 -0.12085E+00
  0.12943E+01 -0.11953E+00
  0.12914E+01 -0.11829E+00
  0.12887E+01 -0.11713E+00
  0.12861E+01 -0.11604E+00
  0.12837E+01 -0.11501E+00
  0.12814E+01 -0.11402E+00
  0.12792E+01 -0.11312E+00
  0.12771E+01 -0.11228E+00
  0.12751E+01 -0.11146E+00
  0.12733E+01 -0.11066E+00
  0.12532E+01 -0.10217E+00
  0.12288E+01 -0.92054E-01
  0.12000E+01 -0.81735E-01
  0.11682E+01 -0.72134E-01
  0.11332E+01 -0.63396E-01
  0.10948E+01 -0.55556E-01
  0.10615E+01 -0.49854E-01
  0.10342E+01 -0.45747E-01
  0.10118E+01 -0.42634E-01
  0.99354E+00 -0.40184E-01
  0.97865E+00 -0.38222E-01
  0.96511E+00 -0.36426E-01
  0.95273E+00 -0.34858E-01
  0.94328E+00 -0.28314E-01
  0.94955E+00 -0.20026E-01
  0.95998E+00 -0.16007E-01
  0.97205E+00 -0.13987E-01
  0.98544E+00 -0.12898E-01
  0.10002E+01 -0.12482E-01
  0.10179E+01 -0.13158E-01
  0.10395E+01 -0.15447E-01
  0.10658E+01 -0.20109E-01
  0.10977E+01 -0.28097E-01
  0.11364E+01 -0.40430E-01
  0.11712E+01 -0.54166E-01
  0.12026E+01 -0.68550E-01
  0.12309E+01 -0.83210E-01
  0.12547E+01 -0.97338E-01
  0.12735E+01 -0.11030E+00
  0.12753E+01 -0.11109E+00
  0.12773E+01 -0.11191E+00
  0.12793E+01 -0.11274E+00
  0.12815E+01 -0.11365E+00
  0.12838E+01 -0.11463E+00
  0.12863E+01 -0.11566E+00
  0.12888E+01 -0.11675E+00
  0.12916E+01 -0.11792E+00
  0.12944E+01 -0.11916E+00
  0.12975E+01 -0.12048E+00
  0.13007E+01 -0.12187E+00
  0.13041E+01 -0.12334E+00
  0.13077E+01 -0.12486E+00
  0.13116E+01 -0.12643E+00
  0.13157E+01 -0.12801E+00
  0.13200E+01 -0.12967E+00
  0.13246E+01 -0.13141E+00
  0.13295E+01 -0.13319E+00
  0.13347E+01 -0.13504E+00
  0.13402E+01 -0.13699E+00
  0.13461E+01 -0.13898E+00
  0.13523E+01 -0.14100E+00
  0.13589E+01 -0.14308E+00
  0.13660E+01 -0.14521E+00
  0.13735E+01 -0.14740E+00
  0.13815E+01 -0.14961E+00
  0.13900E+01 -0.15181E+00
  0.13991E+01 -0.15413E+00
  0.14087E+01 -0.15647E+00
  0.14192E+01 -0.15883E+00
  0.14305E+01 -0.16125E+00
  0.14428E+01 -0.16369E+00
  0.14561E+01 -0.16617E+00
  0.14705E+01 -0.16871E+00
  0.14861E+01 -0.17123E+00
  0.15029E+01 -0.17376E+00
  0.15211E+01 -0.17639E+00
  0.15408E+01 -0.17910E+00
  0.97997E+00  0.17182E-01
  0.95857E+00  0.18718E-01
  0.93574E+00  0.18455E-01
  0.91155E+00  0.16001E-01
  0.88606E+00  0.11320E-01
  0.85941E+00  0.39837E-02
  0.83141E+00 -0.51915E-02
  0.80263E+00 -0.14765E-01
  0.77287E+00 -0.24243E-01
  0.74194E+00 -0.33074E-01
  0.70983E+00 -0.41145E-01
  0.67651E+00 -0.48413E-01
  0.64206E+00 -0.55244E-01
  0.60646E+00 -0.61699E-01
  0.56964E+00 -0.67651E-01
  0.53157E+00 -0.72919E-01
  0.49217E+00 -0.77108E-01
  0.45315E+00 -0.79901E-01
  0.41658E+00 -0.81483E-01
  0.38235E+00 -0.82220E-01
  0.35034E+00 -0.82349E-01
  0.32042E+00 -0.82013E-01
  0.29247E+00 -0.81255E-01
  0.26638E+00 -0.80201E-01
  0.24203E+00 -0.78873E-01
  0.21933E+00 -0.77313E-01
  0.19817E+00 -0.75584E-01
  0.17846E+00 -0.73704E-01
  0.16012E+00 -0.71678E-01
  0.14305E+00 -0.69549E-01
  0.12718E+00 -0.67354E-01
  0.11221E+00 -0.65021E-01
  0.97775E-01 -0.62502E-01
  0.83882E-01 -0.59742E-01
  0.70530E-01 -0.56704E-01
  0.57726E-01 -0.53325E-01
  0.45531E-01 -0.49416E-01
  0.33978E-01 -0.44932E-01
  0.23270E-01 -0.39503E-01
  0.13768E-01 -0.32770E-01
  0.61958E-02 -0.24382E-01
  0.13152E-02 -0.14585E-01
 -0.61955E-03 -0.42004E-02
 -0.33206E-03  0.59659E-02
  0.15073E-02  0.16178E-01
  0.49028E-02  0.26319E-01
  0.10132E-01  0.36029E-01
  0.17282E-01  0.44876E-01
  0.26482E-01  0.52139E-01
  0.37239E-01  0.57525E-01
  0.48790E-01  0.61881E-01
  0.60960E-01  0.65512E-01
  0.73670E-01  0.68568E-01
  0.86860E-01  0.71248E-01
  0.10051E+00  0.73703E-01
  0.11462E+00  0.75949E-01
  0.12922E+00  0.78063E-01
  0.14486E+00  0.80101E-01
  0.16160E+00  0.82069E-01
  0.17952E+00  0.83959E-01
  0.19870E+00  0.85751E-01
  0.21923E+00  0.87441E-01
  0.24122E+00  0.89014E-01
  0.26477E+00  0.90445E-01
  0.29000E+00  0.91707E-01
  0.31705E+00  0.92781E-01
  0.34607E+00  0.93613E-01
  0.37720E+00  0.94148E-01
  0.41063E+00  0.94344E-01
  0.44654E+00  0.94109E-01
  0.48515E+00  0.93351E-01
  0.52476E+00  0.92002E-01
  0.56347E+00  0.90059E-01
  0.60130E+00  0.87523E-01
  0.63827E+00  0.84333E-01
  0.67437E+00  0.80415E-01
  0.70962E+00  0.75745E-01
  0.74401E+00  0.70416E-01
  0.77756E+00  0.64543E-01
  0.81030E+00  0.58261E-01
  0.84224E+00  0.51716E-01
  0.87304E+00  0.45136E-01
  0.90193E+00  0.38747E-01
  0.92901E+00  0.32648E-01
  0.95439E+00  0.26865E-01
  0.97813E+00  0.21380E-01
  0.10002E+01  0.15601E-01
  0.15210E+01 -0.17727E+00
  0.15028E+01 -0.17463E+00
  0.14859E+01 -0.17210E+00
  0.14703E+01 -0.16958E+00
  0.14559E+01 -0.16704E+00
  0.14426E+01 -0.16456E+00
  0.14304E+01 -0.16211E+00
  0.14190E+01 -0.15969E+00
  0.14085E+01 -0.15733E+00
  0.13989E+01 -0.15499E+00
  0.13898E+01 -0.15266E+00
  0.13812E+01 -0.15046E+00
  0.13732E+01 -0.14824E+00
  0.13657E+01 -0.14606E+00
  0.13587E+01 -0.14392E+00
  0.13520E+01 -0.14184E+00
  0.13458E+01 -0.13981E+00
  0.13399E+01 -0.13782E+00
  0.13344E+01 -0.13587E+00
  0.13292E+01 -0.13402E+00
  0.13243E+01 -0.13224E+00
  0.13197E+01 -0.13049E+00
  0.13153E+01 -0.12884E+00
  0.13112E+01 -0.12725E+00
  0.13074E+01 -0.12568E+00
  0.13038E+01 -0.12415E+00
  0.13003E+01 -0.12268E+00
  0.12971E+01 -0.12128E+00
  0.12941E+01 -0.11996E+00
  0.12912E+01 -0.11873E+00
  0.12885E+01 -0.11756E+00
  0.12859E+01 -0.11648E+00
  0.12835E+01 -0.11544E+00
  0.12812E+01 -0.11446E+00
  0.12790E+01 -0.11356E+00
  0.12769E+01 -0.11272E+00
  0.12750E+01 -0.11190E+00
  0.12731E+01 -0.11110E+00
  0.12530E+01 -0.10261E+00
  0.12286E+01 -0.92497E-01
  0.11998E+01 -0.82185E-01
  0.11681E+01 -0.72590E-01
  0.11331E+01 -0.63855E-01
  0.10948E+01 -0.56021E-01
  0.10614E+01 -0.50323E-01
  0.10341E+01 -0.46217E-01
  0.10117E+01 -0.43104E-01
  0.99348E+00 -0.40655E-01
  0.97859E+00 -0.38693E-01
  0.96505E+00 -0.36899E-01
  0.95254E+00 -0.35293E-01
  0.94279E+00 -0.28265E-01
  0.94925E+00 -0.19636E-01
  0.95985E+00 -0.15541E-01
  0.97199E+00 -0.13514E-01
  0.98541E+00 -0.12420E-01
  0.10002E+01 -0.11988E-01
  0.10179E+01 -0.12656E-01
  0.10395E+01 -0.14973E-01
  0.10659E+01 -0.19633E-01
  0.10979E+01 -0.27632E-01
  0.11365E+01 -0.39982E-01
  0.11714E+01 -0.53723E-01
  0.12028E+01 -0.68114E-01
  0.12311E+01 -0.82791E-01
  0.12550E+01 -0.96937E-01
  0.12737E+01 -0.10989E+00
  0.12755E+01 -0.11066E+00
  0.12774E+01 -0.11148E+00
  0.12795E+01 -0.11231E+00
  0.12817E+01 -0.11322E+00
  0.12840E+01 -0.11421E+00
  0.12864E+01 -0.11524E+00
  0.12890E+01 -0.11632E+00
  0.12918E+01 -0.11748E+00
  0.12946E+01 -0.11872E+00
  0.12977E+01 -0.12004E+00
  0.13009E+01 -0.12144E+00
  0.13043E+01 -0.12291E+00
  0.13079E+01 -0.12442E+00
  0.13117E+01 -0.12599E+00
  0.13158E+01 -0.12757E+00
  0.13202E+01 -0.12923E+00
  0.13248E+01 -0.13097E+00
  0.13297E+01 -0.13275E+00
  0.13349E+01 -0.13459E+00
  0.13404E+01 -0.13654E+00
  0.13462E+01 -0.13853E+00
  0.13524E+01 -0.14055E+00
  0.13591E+01 -0.14263E+00
  0.13661E+01 -0.14476E+00
  0.13736E+01 -0.14694E+00
  0.13816E+01 -0.14915E+00
  0.13901E+01 -0.15135E+00
  0.13992E+01 -0.15367E+00
  0.14088E+01 -0.15601E+00
  0.14193E+01 -0.15837E+00
  0.14306E+01 -0.16079E+00
  0.14429E+01 -0.16323E+00
  0.14562E+01 -0.16571E+00
  0.14706E+01 -0.16824E+00
  0.14861E+01 -0.17076E+00
  0.15030E+01 -0.17329E+00
  0.15212E+01 -0.17592E+00
  0.15409E+01 -0.17863E+00
  0.97991E+00  0.16394E-01
  0.95854E+00  0.17948E-01
  0.93578E+00  0.17706E-01
  0.91165E+00  0.15266E-01
  0.88621E+00  0.10657E-01
  0.85960E+00  0.33450E-02
  0.83163E+00 -0.58562E-02
  0.80285E+00 -0.15444E-01
  0.77307E+00 -0.24929E-01
  0.74213E+00 -0.33767E-01
  0.70999E+00 -0.41846E-01
  0.67666E+00 -0.49112E-01
  0.64220E+00 -0.55950E-01
  0.60658E+00 -0.62414E-01
  0.56975E+00 -0.68364E-01
  0.53166E+00 -0.73628E-01
  0.49224E+00 -0.77820E-01
  0.45319E+00 -0.80622E-01
  0.41660E+00 -0.82209E-01
  0.38236E+00 -0.82938E-01
  0.35034E+00 -0.83063E-01
  0.32041E+00 -0.82730E-01
  0.29245E+00 -0.81974E-01
  0.26635E+00 -0.80917E-01
  0.24199E+00 -0.79586E-01
  0.21928E+00 -0.78026E-01
  0.19811E+00 -0.76295E-01
  0.17839E+00 -0.74415E-01
  0.16004E+00 -0.72387E-01
  0.14296E+00 -0.70259E-01
  0.12707E+00 -0.68063E-01
  0.11209E+00 -0.65725E-01
  0.97643E-01 -0.63206E-01
  0.83733E-01 -0.60442E-01
  0.70359E-01 -0.57400E-01
  0.57524E-01 -0.54014E-01
  0.45292E-01 -0.50090E-01
  0.33684E-01 -0.45590E-01
  0.22899E-01 -0.40118E-01
  0.13285E-01 -0.33314E-01
  0.55930E-02 -0.24793E-01
  0.62365E-03 -0.14817E-01
 -0.13430E-02 -0.42569E-02
 -0.10483E-02  0.60402E-02
  0.80076E-03  0.16359E-01
  0.42407E-02  0.26606E-01
  0.95303E-02  0.36429E-01
  0.16772E-01  0.45392E-01
  0.26094E-01  0.52750E-01
  0.36950E-01  0.58184E-01
  0.48561E-01  0.62558E-01
  0.60773E-01  0.66205E-01
  0.73516E-01  0.69265E-01
  0.86725E-01  0.71952E-01
  0.10039E+00  0.74409E-01
  0.11451E+00  0.76655E-01
  0.12913E+00  0.78771E-01
  0.14477E+00  0.80810E-01
  0.16152E+00  0.82780E-01
  0.17945E+00  0.84671E-01
  0.19863E+00  0.86462E-01
  0.21917E+00  0.88154E-01
  0.24117E+00  0.89730E-01
  0.26473E+00  0.91160E-01
  0.28997E+00  0.92421E-01
  0.31703E+00  0.93497E-01
  0.34605E+00  0.94332E-01
  0.37719E+00  0.94865E-01
  0.41063E+00  0.95058E-01
  0.44655E+00  0.94827E-01
  0.48517E+00  0.94069E-01
  0.52479E+00  0.92715E-01
  0.56351E+00  0.90774E-01
  0.60135E+00  0.88235E-01
  0.63834E+00  0.85050E-01
  0.67446E+00  0.81131E-01
  0.70972E+00  0.76452E-01
  0.74413E+00  0.71125E-01
  0.77769E+00  0.65249E-01
  0.81044E+00  0.58961E-01
  0.84239E+00  0.52417E-01
  0.87319E+00  0.45835E-01
  0.90208E+00  0.39443E-01
  0.92917E+00  0.33345E-01
  0.95455E+00  0.27569E-01
  0.97831E+00  0.22087E-01
  0.10004E+01  0.16299E-01
  0.15209E+01 -0.17800E+00
  0.15027E+01 -0.17534E+00
  0.14858E+01 -0.17281E+00
  0.14702E+01 -0.17028E+00
  0.14558E+01 -0.16774E+00
  0.14425E+01 -0.16526E+00
  0.14302E+01 -0.16281E+00
  0.14189E+01 -0.16039E+00
  0.14084E+01 -0.15802E+00
  0.13987E+01 -0.15568E+00
  0.13896E+01 -0.15335E+00
  0.13811E+01 -0.15115E+00
  0.13730E+01 -0.14893E+00
  0.13655E+01 -0.14674E+00
  0.13584E+01 -0.14460E+00
  0.13518E+01 -0.14252E+00
  0.13455E+01 -0.14049E+00
  0.13397E+01 -0.13850E+00
  0.13342E+01 -0.13654E+00
  0.13290E+01 -0.13469E+00
  0.13240E+01 -0.13291E+00
  0.13194E+01 -0.13116E+00
  0.13151E+01 -0.12950E+00
  0.13110E+01 -0.12791E+00
  0.13071E+01 -0.12634E+00
  0.13035E+01 -0.12481E+00
  0.13001E+01 -0.12334E+00
  0.12968E+01 -0.12194E+00
  0.12938E+01 -0.12062E+00
  0.12909E+01 -0.11938E+00
  0.12882E+01 -0.11822E+00
  0.12856E+01 -0.11713E+00
  0.12832E+01 -0.11610E+00
  0.12809E+01 -0.11512E+00
  0.12787E+01 -0.11422E+00
  0.12766E+01 -0.11338E+00
  0.12747E+01 -0.11255E+00
  0.12728E+01 -0.11175E+00
  0.12527E+01 -0.10326E+00
  0.12283E+01 -0.93164E-01
  0.11996E+01 -0.82859E-01
  0.11679E+01 -0.73274E-01
  0.11329E+01 -0.64537E-01
  0.10946E+01 -0.56715E-01
  0.10613E+01 -0.51028E-01
  0.10340E+01 -0.46921E-01
  0.10116E+01 -0.43809E-01
  0.99338E+00 -0.41362E-01
  0.97849E+00 -0.39401E-01
  0.96496E+00 -0.37610E-01
  0.95224E+00 -0.35949E-01
  0.94201E+00 -0.28188E-01
  0.94880E+00 -0.19038E-01
  0.95965E+00 -0.14830E-01
  0.97190E+00 -0.12802E-01
  0.98537E+00 -0.11699E-01
  0.10002E+01 -0.11222E-01
  0.10180E+01 -0.11860E-01
  0.10396E+01 -0.14259E-01
  0.10660E+01 -0.18903E-01
  0.10981E+01 -0.26921E-01
  0.11368E+01 -0.39308E-01
  0.11716E+01 -0.53050E-01
  0.12031E+01 -0.67447E-01
  0.12315E+01 -0.82155E-01
  0.12554E+01 -0.96334E-01
  0.12741E+01 -0.10929E+00
  0.12758E+01 -0.11003E+00
  0.12777E+01 -0.11085E+00
  0.12798E+01 -0.11168E+00
  0.12820E+01 -0.11259E+00
  0.12843E+01 -0.11357E+00
  0.12867E+01 -0.11460E+00
  0.12893E+01 -0.11568E+00
  0.12920E+01 -0.11683E+00
  0.12949E+01 -0.11807E+00
  0.12980E+01 -0.11939E+00
  0.13012E+01 -0.12079E+00
  0.13046E+01 -0.12225E+00
  0.13082E+01 -0.12377E+00
  0.13120E+01 -0.12532E+00
  0.13161E+01 -0.12691E+00
  0.13204E+01 -0.12856E+00
  0.13250E+01 -0.13030E+00
  0.13299E+01 -0.13207E+00
  0.13351E+01 -0.13392E+00
  0.13406E+01 -0.13587E+00
  0.13464E+01 -0.13786E+00
  0.13526E+01 -0.13988E+00
  0.13593E+01 -0.14195E+00
  0.13663E+01 -0.14408E+00
  0.13738E+01 -0.14626E+00
  0.13818E+01 -0.14846E+00
  0.13903E+01 -0.15065E+00
  0.13994E+01 -0.15298E+00
  0.14090E+01 -0.15531E+00