 VARIABLES= "X", "Y"
 ZONE N=   49054 E=   96814 F=FEPOINT  ET=triangle
  0.99802E+00  0.15246E-01
  0.99603E+00  0.15548E-01
  0.99403E+00  0.15848E-01
  0.99201E+00  0.16146E-01
  0.98998E+00  0.16443E-01
  0.98794E+00  0.16740E-01
  0.98588E+00  0.17046E-01
  0.98382E+00  0.17353E-01
  0.98173E+00  0.17653E-01
  0.97963E+00  0.17934E-01
  0.97752E+00  0.18187E-01
  0.97538E+00  0.18406E-01
  0.97323E+00  0.18600E-01
  0.97107E+00  0.18770E-01
  0.96888E+00  0.18920E-01
  0.96669E+00  0.19053E-01
  0.96448E+00  0.19173E-01
  0.96225E+00  0.19280E-01
  0.96001E+00  0.19369E-01
  0.95775E+00  0.19440E-01
  0.95548E+00  0.19493E-01
  0.95319E+00  0.19527E-01
  0.95089E+00  0.19542E-01
  0.94858E+00  0.19538E-01
  0.94625E+00  0.19514E-01
  0.94390E+00  0.19468E-01
  0.94154E+00  0.19401E-01
  0.93917E+00  0.19313E-01
  0.93678E+00  0.19202E-01
  0.93438E+00  0.19068E-01
  0.93196E+00  0.18910E-01
  0.92953E+00  0.18728E-01
  0.92709E+00  0.18522E-01
  0.92463E+00  0.18292E-01
  0.92216E+00  0.18037E-01
  0.91968E+00  0.17758E-01
  0.91718E+00  0.17456E-01
  0.91467E+00  0.17130E-01
  0.91214E+00  0.16781E-01
  0.90961E+00  0.16411E-01
  0.90706E+00  0.16017E-01
  0.90449E+00  0.15601E-01
  0.90192E+00  0.15165E-01
  0.89933E+00  0.14709E-01
  0.89672E+00  0.14229E-01
  0.89411E+00  0.13722E-01
  0.89148E+00  0.13189E-01
  0.88884E+00  0.12627E-01
  0.88619E+00  0.12035E-01
  0.88353E+00  0.11407E-01
  0.88086E+00  0.10745E-01
  0.87818E+00  0.10055E-01
  0.87549E+00  0.93418E-02
  0.87278E+00  0.86045E-02
  0.87007E+00  0.78395E-02
  0.86734E+00  0.70507E-02
  0.86460E+00  0.62420E-02
  0.86184E+00  0.54171E-02
  0.85907E+00  0.45696E-02
  0.85629E+00  0.36990E-02
  0.85350E+00  0.28091E-02
  0.85069E+00  0.19038E-02
  0.84786E+00  0.98715E-03
  0.84502E+00  0.62812E-04
  0.84217E+00 -0.87344E-03
  0.83931E+00 -0.18226E-02
  0.83645E+00 -0.27817E-02
  0.83358E+00 -0.37476E-02
  0.83071E+00 -0.47172E-02
  0.82782E+00 -0.56874E-02
  0.82493E+00 -0.66550E-02
  0.82203E+00 -0.76223E-02
  0.81911E+00 -0.85928E-02
  0.81620E+00 -0.95657E-02
  0.81327E+00 -0.10540E-01
  0.81033E+00 -0.11514E-01
  0.80738E+00 -0.12488E-01
  0.80443E+00 -0.13461E-01
  0.80146E+00 -0.14432E-01
  0.79849E+00 -0.15406E-01
  0.79551E+00 -0.16382E-01
  0.79252E+00 -0.17356E-01
  0.78952E+00 -0.18328E-01
  0.78651E+00 -0.19295E-01
  0.78348E+00 -0.20255E-01
  0.78045E+00 -0.21206E-01
  0.77740E+00 -0.22148E-01
  0.77434E+00 -0.23085E-01
  0.77127E+00 -0.24015E-01
  0.76819E+00 -0.24939E-01
  0.76510E+00 -0.25855E-01
  0.76200E+00 -0.26764E-01
  0.75889E+00 -0.27666E-01
  0.75576E+00 -0.28559E-01
  0.75262E+00 -0.29443E-01
  0.74947E+00 -0.30320E-01
  0.74631E+00 -0.31188E-01
  0.74314E+00 -0.32048E-01
  0.73996E+00 -0.32901E-01
  0.73676E+00 -0.33746E-01
  0.73356E+00 -0.34583E-01
  0.73034E+00 -0.35412E-01
  0.72711E+00 -0.36234E-01
  0.72387E+00 -0.37047E-01
  0.72062E+00 -0.37853E-01
  0.71735E+00 -0.38650E-01
  0.71408E+00 -0.39439E-01
  0.71079E+00 -0.40219E-01
  0.70750E+00 -0.40991E-01
  0.70419E+00 -0.41755E-01
  0.70087E+00 -0.42508E-01
  0.69753E+00 -0.43250E-01
  0.69419E+00 -0.43982E-01
  0.69083E+00 -0.44706E-01
  0.68746E+00 -0.45424E-01
  0.68409E+00 -0.46138E-01
  0.68070E+00 -0.46848E-01
  0.67730E+00 -0.47558E-01
  0.67389E+00 -0.48263E-01
  0.67047E+00 -0.48963E-01
  0.66704E+00 -0.49659E-01
  0.66360E+00 -0.50350E-01
  0.66015E+00 -0.51036E-01
  0.65669E+00 -0.51720E-01
  0.65321E+00 -0.52400E-01
  0.64973E+00 -0.53078E-01
  0.64624E+00 -0.53753E-01
  0.64273E+00 -0.54424E-01
  0.63922E+00 -0.55093E-01
  0.63569E+00 -0.55757E-01
  0.63216E+00 -0.56417E-01
  0.62861E+00 -0.57072E-01
  0.62505E+00 -0.57723E-01
  0.62149E+00 -0.58368E-01
  0.61791E+00 -0.59007E-01
  0.61431E+00 -0.59642E-01
  0.61071E+00 -0.60272E-01
  0.60710E+00 -0.60897E-01
  0.60348E+00 -0.61517E-01
  0.59984E+00 -0.62131E-01
  0.59619E+00 -0.62741E-01
  0.59254E+00 -0.63344E-01
  0.58887E+00 -0.63943E-01
  0.58519E+00 -0.64537E-01
  0.58150E+00 -0.65126E-01
  0.57780E+00 -0.65709E-01
  0.57408E+00 -0.66285E-01
  0.57036E+00 -0.66855E-01
  0.56662E+00 -0.67416E-01
  0.56287E+00 -0.67970E-01
  0.55911E+00 -0.68519E-01
  0.55534E+00 -0.69061E-01
  0.55156E+00 -0.69596E-01
  0.54776E+00 -0.70123E-01
  0.54396E+00 -0.70641E-01
  0.54014E+00 -0.71147E-01
  0.53631E+00 -0.71643E-01
  0.53246E+00 -0.72126E-01
  0.52861E+00 -0.72599E-01
  0.52474E+00 -0.73062E-01
  0.52086E+00 -0.73514E-01
  0.51696E+00 -0.73955E-01
  0.51306E+00 -0.74384E-01
  0.50914E+00 -0.74799E-01
  0.50520E+00 -0.75201E-01
  0.50126E+00 -0.75589E-01
  0.49730E+00 -0.75964E-01
  0.49333E+00 -0.76325E-01
  0.48935E+00 -0.76674E-01
  0.48537E+00 -0.77008E-01
  0.48143E+00 -0.77326E-01
  0.47751E+00 -0.77630E-01
  0.47361E+00 -0.77919E-01
  0.46974E+00 -0.78191E-01
  0.46589E+00 -0.78449E-01
  0.46207E+00 -0.78693E-01
  0.45827E+00 -0.78924E-01
  0.45450E+00 -0.79144E-01
  0.45075E+00 -0.79352E-01
  0.44703E+00 -0.79550E-01
  0.44333E+00 -0.79736E-01
  0.43965E+00 -0.79910E-01
  0.43600E+00 -0.80073E-01
  0.43238E+00 -0.80227E-01
  0.42878E+00 -0.80370E-01
  0.42520E+00 -0.80505E-01
  0.42165E+00 -0.80632E-01
  0.41812E+00 -0.80752E-01
  0.41461E+00 -0.80862E-01
  0.41113E+00 -0.80964E-01
  0.40768E+00 -0.81057E-01
  0.40424E+00 -0.81143E-01
  0.40083E+00 -0.81222E-01
  0.39744E+00 -0.81294E-01
  0.39408E+00 -0.81360E-01
  0.39074E+00 -0.81420E-01
  0.38742E+00 -0.81472E-01
  0.38412E+00 -0.81519E-01
  0.38085E+00 -0.81558E-01
  0.37760E+00 -0.81592E-01
  0.37437E+00 -0.81621E-01
  0.37116E+00 -0.81644E-01
  0.36798E+00 -0.81661E-01
  0.36482E+00 -0.81675E-01
  0.36168E+00 -0.81683E-01
  0.35856E+00 -0.81686E-01
  0.35546E+00 -0.81684E-01
  0.35238E+00 -0.81678E-01
  0.34932E+00 -0.81667E-01
  0.34629E+00 -0.81651E-01
  0.34327E+00 -0.81631E-01
  0.34028E+00 -0.81607E-01
  0.33731E+00 -0.81578E-01
  0.33435E+00 -0.81546E-01
  0.33142E+00 -0.81510E-01
  0.32851E+00 -0.81469E-01
  0.32562E+00 -0.81425E-01
  0.32274E+00 -0.81377E-01
  0.31989E+00 -0.81324E-01
  0.31706E+00 -0.81267E-01
  0.31425E+00 -0.81205E-01
  0.31145E+00 -0.81139E-01
  0.30868E+00 -0.81068E-01
  0.30592E+00 -0.80994E-01
  0.30318E+00 -0.80916E-01
  0.30047E+00 -0.80834E-01
  0.29777E+00 -0.80750E-01
  0.29509E+00 -0.80663E-01
  0.29242E+00 -0.80573E-01
  0.28978E+00 -0.80481E-01
  0.28715E+00 -0.80387E-01
  0.28455E+00 -0.80291E-01
  0.28196E+00 -0.80192E-01
  0.27938E+00 -0.80091E-01
  0.27683E+00 -0.79987E-01
  0.27429E+00 -0.79880E-01
  0.27177E+00 -0.79770E-01
  0.26927E+00 -0.79657E-01
  0.26679E+00 -0.79541E-01
  0.26432E+00 -0.79423E-01
  0.26187E+00 -0.79302E-01
  0.25944E+00 -0.79179E-01
  0.25702E+00 -0.79054E-01
  0.25462E+00 -0.78925E-01
  0.25224E+00 -0.78795E-01
  0.24987E+00 -0.78661E-01
  0.24752E+00 -0.78526E-01
  0.24519E+00 -0.78387E-01
  0.24287E+00 -0.78246E-01
  0.24057E+00 -0.78103E-01
  0.23829E+00 -0.77957E-01
  0.23602E+00 -0.77809E-01
  0.23376E+00 -0.77660E-01
  0.23152E+00 -0.77508E-01
  0.22930E+00 -0.77355E-01
  0.22709E+00 -0.77200E-01
  0.22490E+00 -0.77043E-01
  0.22272E+00 -0.76885E-01
  0.22056E+00 -0.76725E-01
  0.21842E+00 -0.76564E-01
  0.21628E+00 -0.76402E-01
  0.21417E+00 -0.76237E-01
  0.21206E+00 -0.76071E-01
  0.20998E+00 -0.75904E-01
  0.20790E+00 -0.75734E-01
  0.20585E+00 -0.75563E-01
  0.20380E+00 -0.75391E-01
  0.20177E+00 -0.75217E-01
  0.19975E+00 -0.75043E-01
  0.19775E+00 -0.74866E-01
  0.19576E+00 -0.74688E-01
  0.19379E+00 -0.74509E-01
  0.19183E+00 -0.74328E-01
  0.18988E+00 -0.74146E-01
  0.18795E+00 -0.73962E-01
  0.18603E+00 -0.73777E-01
  0.18412E+00 -0.73590E-01
  0.18223E+00 -0.73403E-01
  0.18035E+00 -0.73214E-01
  0.17848E+00 -0.73024E-01
  0.17663E+00 -0.72833E-01
  0.17479E+00 -0.72639E-01
  0.17296E+00 -0.72445E-01
  0.17115E+00 -0.72248E-01
  0.16934E+00 -0.72051E-01
  0.16756E+00 -0.71851E-01
  0.16578E+00 -0.71651E-01
  0.16401E+00 -0.71449E-01
  0.16226E+00 -0.71247E-01
  0.16052E+00 -0.71043E-01
  0.15879E+00 -0.70838E-01
  0.15708E+00 -0.70633E-01
  0.15537E+00 -0.70427E-01
  0.15368E+00 -0.70219E-01
  0.15200E+00 -0.70011E-01
  0.15034E+00 -0.69803E-01
  0.14868E+00 -0.69593E-01
  0.14703E+00 -0.69383E-01
  0.14540E+00 -0.69172E-01
  0.14378E+00 -0.68960E-01
  0.14217E+00 -0.68748E-01
  0.14057E+00 -0.68535E-01
  0.13898E+00 -0.68323E-01
  0.13741E+00 -0.68110E-01
  0.13584E+00 -0.67897E-01
  0.13429E+00 -0.67683E-01
  0.13274E+00 -0.67468E-01
  0.13121E+00 -0.67252E-01
  0.12969E+00 -0.67035E-01
  0.12818E+00 -0.66816E-01
  0.12668E+00 -0.66596E-01
  0.12519E+00 -0.66374E-01
  0.12371E+00 -0.66151E-01
  0.12223E+00 -0.65926E-01
  0.12076E+00 -0.65699E-01
  0.11929E+00 -0.65471E-01
  0.11783E+00 -0.65241E-01
  0.11638E+00 -0.65009E-01
  0.11492E+00 -0.64776E-01
  0.11348E+00 -0.64542E-01
  0.11204E+00 -0.64306E-01
  0.11060E+00 -0.64070E-01
  0.10917E+00 -0.63831E-01
  0.10774E+00 -0.63591E-01
  0.10632E+00 -0.63348E-01
  0.10491E+00 -0.63103E-01
  0.10349E+00 -0.62855E-01
  0.10209E+00 -0.62603E-01
  0.10069E+00 -0.62350E-01
  0.99293E-01 -0.62094E-01
  0.97903E-01 -0.61836E-01
  0.96517E-01 -0.61575E-01
  0.95137E-01 -0.61312E-01
  0.93762E-01 -0.61047E-01
  0.92391E-01 -0.60780E-01
  0.91026E-01 -0.60511E-01
  0.89665E-01 -0.60240E-01
  0.88310E-01 -0.59967E-01
  0.86959E-01 -0.59691E-01
  0.85614E-01 -0.59413E-01
  0.84273E-01 -0.59131E-01
  0.82938E-01 -0.58847E-01
  0.81608E-01 -0.58559E-01
  0.80283E-01 -0.58269E-01
  0.78963E-01 -0.57976E-01
  0.77648E-01 -0.57681E-01
  0.76338E-01 -0.57382E-01
  0.75033E-01 -0.57080E-01
  0.73733E-01 -0.56775E-01
  0.72438E-01 -0.56467E-01
  0.71149E-01 -0.56157E-01
  0.69864E-01 -0.55843E-01
  0.68585E-01 -0.55527E-01
  0.67311E-01 -0.55206E-01
  0.66042E-01 -0.54881E-01
  0.64779E-01 -0.54553E-01
  0.63520E-01 -0.54222E-01
  0.62267E-01 -0.53887E-01
  0.61019E-01 -0.53548E-01
  0.59777E-01 -0.53204E-01
  0.58541E-01 -0.52853E-01
  0.57311E-01 -0.52496E-01
  0.56088E-01 -0.52133E-01
  0.54870E-01 -0.51765E-01
  0.53657E-01 -0.51391E-01
  0.52451E-01 -0.51012E-01
  0.51251E-01 -0.50628E-01
  0.50057E-01 -0.50238E-01
  0.48868E-01 -0.49844E-01
  0.47686E-01 -0.49444E-01
  0.46509E-01 -0.49039E-01
  0.45338E-01 -0.48630E-01
  0.44173E-01 -0.48216E-01
  0.43014E-01 -0.47799E-01
  0.41860E-01 -0.47377E-01
  0.40713E-01 -0.46948E-01
  0.39574E-01 -0.46509E-01
  0.38442E-01 -0.46063E-01
  0.37317E-01 -0.45610E-01
  0.36200E-01 -0.45148E-01
  0.35091E-01 -0.44676E-01
  0.33991E-01 -0.44193E-01
  0.32900E-01 -0.43701E-01
  0.31817E-01 -0.43199E-01
  0.30743E-01 -0.42687E-01
  0.29677E-01 -0.42167E-01
  0.28618E-01 -0.41640E-01
  0.27569E-01 -0.41103E-01
  0.26531E-01 -0.40555E-01
  0.25503E-01 -0.39994E-01
  0.24485E-01 -0.39422E-01
  0.23480E-01 -0.38837E-01
  0.22487E-01 -0.38238E-01
  0.21508E-01 -0.37623E-01
  0.20541E-01 -0.36996E-01
  0.19588E-01 -0.36354E-01
  0.18648E-01 -0.35701E-01
  0.17722E-01 -0.35034E-01
  0.16811E-01 -0.34353E-01
  0.15914E-01 -0.33658E-01
  0.15034E-01 -0.32949E-01
  0.14175E-01 -0.32220E-01
  0.13336E-01 -0.31473E-01
  0.12518E-01 -0.30708E-01
  0.11720E-01 -0.29928E-01
  0.10944E-01 -0.29131E-01
  0.10191E-01 -0.28317E-01
  0.94626E-02 -0.27486E-01
  0.87555E-02 -0.26641E-01
  0.80709E-02 -0.25782E-01
  0.74122E-02 -0.24908E-01
  0.67792E-02 -0.24019E-01
  0.61716E-02 -0.23116E-01
  0.55922E-02 -0.22200E-01
  0.50420E-02 -0.21270E-01
  0.45208E-02 -0.20327E-01
  0.40266E-02 -0.19373E-01
  0.35596E-02 -0.18410E-01
  0.31214E-02 -0.17437E-01
  0.27143E-02 -0.16455E-01
  0.23397E-02 -0.15463E-01
  0.19980E-02 -0.14463E-01
  0.16861E-02 -0.13457E-01
  0.14038E-02 -0.12445E-01
  0.11492E-02 -0.11430E-01
  0.92136E-03 -0.10412E-01
  0.71815E-03 -0.93925E-02
  0.53725E-03 -0.83719E-02
  0.38135E-03 -0.73507E-02
  0.25305E-03 -0.63290E-02
  0.14992E-03 -0.53078E-02
  0.69651E-04 -0.42880E-02
  0.10748E-04 -0.32700E-02
 -0.26321E-04 -0.22545E-02
 -0.42057E-04 -0.12417E-02
 -0.38273E-04 -0.23219E-03
 -0.16246E-04  0.77372E-03
  0.20183E-04  0.17759E-02
  0.72264E-04  0.27753E-02
  0.14246E-03  0.37768E-02
  0.23063E-03  0.47798E-02
  0.33317E-03  0.57846E-02
  0.44948E-03  0.67910E-02
  0.58024E-03  0.77987E-02
  0.72547E-03  0.88075E-02
  0.88548E-03  0.98173E-02
  0.10598E-02  0.10828E-01
  0.12480E-02  0.11839E-01
  0.14504E-02  0.12851E-01
  0.16669E-02  0.13863E-01
  0.18969E-02  0.14876E-01
  0.21396E-02  0.15889E-01
  0.23962E-02  0.16902E-01
  0.26687E-02  0.17914E-01
  0.29582E-02  0.18925E-01
  0.32632E-02  0.19935E-01
  0.35851E-02  0.20944E-01
  0.39257E-02  0.21949E-01
  0.42862E-02  0.22952E-01
  0.46659E-02  0.23950E-01
  0.50642E-02  0.24946E-01
  0.54808E-02  0.25937E-01
  0.59151E-02  0.26925E-01
  0.63675E-02  0.27908E-01
  0.68381E-02  0.28887E-01
  0.73270E-02  0.29860E-01
  0.78343E-02  0.30828E-01
  0.83601E-02  0.31790E-01
  0.89038E-02  0.32746E-01
  0.94658E-02  0.33696E-01
  0.10047E-01  0.34638E-01
  0.10647E-01  0.35572E-01
  0.11268E-01  0.36498E-01
  0.11907E-01  0.37414E-01
  0.12566E-01  0.38322E-01
  0.13244E-01  0.39219E-01
  0.13942E-01  0.40106E-01
  0.14661E-01  0.40981E-01
  0.15400E-01  0.41843E-01
  0.16157E-01  0.42695E-01
  0.16934E-01  0.43534E-01
  0.17731E-01  0.44358E-01
  0.18550E-01  0.45166E-01
  0.19391E-01  0.45956E-01
  0.20255E-01  0.46727E-01
  0.21142E-01  0.47477E-01
  0.22049E-01  0.48208E-01
  0.22977E-01  0.48919E-01
  0.23923E-01  0.49612E-01
  0.24887E-01  0.50287E-01
  0.25867E-01  0.50943E-01
  0.26869E-01  0.51575E-01
  0.27889E-01  0.52182E-01
  0.28927E-01  0.52767E-01
  0.29980E-01  0.53334E-01
  0.31044E-01  0.53886E-01
  0.32118E-01  0.54428E-01
  0.33200E-01  0.54962E-01
  0.34292E-01  0.55483E-01
  0.35397E-01  0.55988E-01
  0.36512E-01  0.56478E-01
  0.37637E-01  0.56955E-01
  0.38771E-01  0.57422E-01
  0.39912E-01  0.57882E-01
  0.41059E-01  0.58336E-01
  0.42211E-01  0.58788E-01
  0.43371E-01  0.59231E-01
  0.44538E-01  0.59666E-01
  0.45712E-01  0.60093E-01
  0.46893E-01  0.60512E-01
  0.48082E-01  0.60924E-01
  0.49276E-01  0.61329E-01
  0.50478E-01  0.61726E-01
  0.51685E-01  0.62118E-01
  0.52900E-01  0.62501E-01
  0.54121E-01  0.62875E-01
  0.55349E-01  0.63241E-01
  0.56584E-01  0.63600E-01
  0.57825E-01  0.63952E-01
  0.59072E-01  0.64298E-01
  0.60324E-01  0.64639E-01
  0.61582E-01  0.64976E-01
  0.62845E-01  0.65308E-01
  0.64115E-01  0.65634E-01
  0.65390E-01  0.65953E-01
  0.66671E-01  0.66266E-01
  0.67958E-01  0.66573E-01
  0.69251E-01  0.66875E-01
  0.70548E-01  0.67173E-01
  0.71851E-01  0.67468E-01
  0.73159E-01  0.67760E-01
  0.74472E-01  0.68050E-01
  0.75790E-01  0.68336E-01
  0.77113E-01  0.68618E-01
  0.78442E-01  0.68895E-01
  0.79776E-01  0.69168E-01
  0.81115E-01  0.69437E-01
  0.82459E-01  0.69704E-01
  0.83808E-01  0.69968E-01
  0.85162E-01  0.70231E-01
  0.86520E-01  0.70492E-01
  0.87883E-01  0.70752E-01
  0.89252E-01  0.71011E-01
  0.90625E-01  0.71266E-01
  0.92003E-01  0.71519E-01
  0.93386E-01  0.71770E-01
  0.94774E-01  0.72019E-01
  0.96167E-01  0.72265E-01
  0.97565E-01  0.72510E-01
  0.98968E-01  0.72752E-01
  0.10038E+00  0.72993E-01
  0.10179E+00  0.73232E-01
  0.10321E+00  0.73468E-01
  0.10463E+00  0.73702E-01
  0.10606E+00  0.73933E-01
  0.10749E+00  0.74162E-01
  0.10893E+00  0.74389E-01
  0.11037E+00  0.74614E-01
  0.11182E+00  0.74837E-01
  0.11327E+00  0.75059E-01
  0.11473E+00  0.75280E-01
  0.11619E+00  0.75500E-01
  0.11766E+00  0.75719E-01
  0.11913E+00  0.75937E-01
  0.12060E+00  0.76154E-01
  0.12209E+00  0.76370E-01
  0.12358E+00  0.76585E-01
  0.12508E+00  0.76799E-01
  0.12659E+00  0.77012E-01
  0.12812E+00  0.77225E-01
  0.12965E+00  0.77437E-01
  0.13120E+00  0.77649E-01
  0.13275E+00  0.77859E-01
  0.13432E+00  0.78069E-01
  0.13590E+00  0.78278E-01
  0.13749E+00  0.78486E-01
  0.13909E+00  0.78692E-01
  0.14070E+00  0.78898E-01
  0.14232E+00  0.79103E-01
  0.14395E+00  0.79306E-01
  0.14560E+00  0.79509E-01
  0.14726E+00  0.79711E-01
  0.14892E+00  0.79913E-01
  0.15060E+00  0.80114E-01
  0.15230E+00  0.80315E-01
  0.15400E+00  0.80516E-01
  0.15571E+00  0.80716E-01
  0.15744E+00  0.80915E-01
  0.15918E+00  0.81114E-01
  0.16093E+00  0.81311E-01
  0.16270E+00  0.81508E-01
  0.16447E+00  0.81704E-01
  0.16626E+00  0.81899E-01
  0.16806E+00  0.82093E-01
  0.16987E+00  0.82287E-01
  0.17170E+00  0.82479E-01
  0.17354E+00  0.82671E-01
  0.17539E+00  0.82862E-01
  0.17726E+00  0.83051E-01
  0.17913E+00  0.83239E-01
  0.18102E+00  0.83426E-01
  0.18293E+00  0.83612E-01
  0.18484E+00  0.83797E-01
  0.18678E+00  0.83981E-01
  0.18872E+00  0.84164E-01
  0.19068E+00  0.84346E-01
  0.19265E+00  0.84527E-01
  0.19463E+00  0.84708E-01
  0.19663E+00  0.84887E-01
  0.19864E+00  0.85066E-01
  0.20067E+00  0.85243E-01
  0.20271E+00  0.85418E-01
  0.20476E+00  0.85593E-01
  0.20683E+00  0.85766E-01
  0.20892E+00  0.85939E-01
  0.21101E+00  0.86110E-01
  0.21313E+00  0.86280E-01
  0.21525E+00  0.86450E-01
  0.21740E+00  0.86618E-01
  0.21955E+00  0.86785E-01
  0.22172E+00  0.86951E-01
  0.22391E+00  0.87115E-01
  0.22611E+00  0.87278E-01
  0.22833E+00  0.87440E-01
  0.23056E+00  0.87600E-01
  0.23281E+00  0.87759E-01
  0.23507E+00  0.87917E-01
  0.23735E+00  0.88073E-01
  0.23965E+00  0.88228E-01
  0.24196E+00  0.88382E-01
  0.24428E+00  0.88534E-01
  0.24663E+00  0.88685E-01
  0.24898E+00  0.88834E-01
  0.25136E+00  0.88981E-01
  0.25375E+00  0.89127E-01
  0.25616E+00  0.89271E-01
  0.25858E+00  0.89413E-01
  0.26103E+00  0.89554E-01
  0.26348E+00  0.89694E-01
  0.26596E+00  0.89831E-01
  0.26845E+00  0.89967E-01
  0.27096E+00  0.90101E-01
  0.27349E+00  0.90233E-01
  0.27603E+00  0.90363E-01
  0.27860E+00  0.90491E-01
  0.28118E+00  0.90617E-01
  0.28377E+00  0.90742E-01
  0.28639E+00  0.90864E-01
  0.28902E+00  0.90985E-01
  0.29167E+00  0.91103E-01
  0.29434E+00  0.91220E-01
  0.29703E+00  0.91335E-01
  0.29974E+00  0.91448E-01
  0.30246E+00  0.91559E-01
  0.30521E+00  0.91668E-01
  0.30797E+00  0.91774E-01
  0.31075E+00  0.91878E-01
  0.31356E+00  0.91979E-01
  0.31638E+00  0.92079E-01
  0.31922E+00  0.92175E-01
  0.32208E+00  0.92270E-01
  0.32496E+00  0.92361E-01
  0.32785E+00  0.92450E-01
  0.33077E+00  0.92536E-01
  0.33371E+00  0.92620E-01
  0.33667E+00  0.92700E-01
  0.33965E+00  0.92778E-01
  0.34265E+00  0.92853E-01
  0.34567E+00  0.92925E-01
  0.34871E+00  0.92994E-01
  0.35178E+00  0.93060E-01
  0.35486E+00  0.93122E-01
  0.35797E+00  0.93181E-01
  0.36109E+00  0.93237E-01
  0.36424E+00  0.93290E-01
  0.36741E+00  0.93339E-01
  0.37060E+00  0.93385E-01
  0.37381E+00  0.93428E-01
  0.37705E+00  0.93468E-01
  0.38030E+00  0.93504E-01
  0.38358E+00  0.93537E-01
  0.38689E+00  0.93566E-01
  0.39021E+00  0.93592E-01
  0.39356E+00  0.93615E-01
  0.39693E+00  0.93633E-01
  0.40032E+00  0.93647E-01
  0.40374E+00  0.93658E-01
  0.40718E+00  0.93664E-01
  0.41064E+00  0.93666E-01
  0.41413E+00  0.93663E-01
  0.41764E+00  0.93656E-01
  0.42118E+00  0.93645E-01
  0.42474E+00  0.93628E-01
  0.42832E+00  0.93607E-01
  0.43193E+00  0.93581E-01
  0.43556E+00  0.93551E-01
  0.43922E+00  0.93515E-01
  0.44291E+00  0.93475E-01
  0.44662E+00  0.93430E-01
  0.45035E+00  0.93379E-01
  0.45411E+00  0.93323E-01
  0.45790E+00  0.93261E-01
  0.46172E+00  0.93194E-01
  0.46556E+00  0.93122E-01
  0.46942E+00  0.93043E-01
  0.47332E+00  0.92959E-01
  0.47724E+00  0.92869E-01
  0.48119E+00  0.92773E-01
  0.48517E+00  0.92672E-01
  0.48916E+00  0.92564E-01
  0.49314E+00  0.92452E-01
  0.49711E+00  0.92333E-01
  0.50107E+00  0.92208E-01
  0.50502E+00  0.92077E-01
  0.50895E+00  0.91940E-01
  0.51288E+00  0.91796E-01
  0.51680E+00  0.91646E-01
  0.52071E+00  0.91491E-01
  0.52461E+00  0.91329E-01
  0.52850E+00  0.91162E-01
  0.53237E+00  0.90989E-01
  0.53624E+00  0.90811E-01
  0.54010E+00  0.90626E-01
  0.54394E+00  0.90436E-01
  0.54778E+00  0.90241E-01
  0.55160E+00  0.90041E-01
  0.55541E+00  0.89835E-01
  0.55922E+00  0.89623E-01
  0.56301E+00  0.89406E-01
  0.56679E+00  0.89183E-01
  0.57056E+00  0.88954E-01
  0.57432E+00  0.88718E-01
  0.57807E+00  0.88477E-01
  0.58181E+00  0.88232E-01
  0.58553E+00  0.87980E-01
  0.58925E+00  0.87724E-01
  0.59296E+00  0.87461E-01
  0.59665E+00  0.87192E-01
  0.60034E+00  0.86917E-01
  0.60401E+00  0.86634E-01
  0.60768E+00  0.86345E-01
  0.61133E+00  0.86050E-01
  0.61497E+00  0.85749E-01
  0.61860E+00  0.85443E-01
  0.62222E+00  0.85130E-01
  0.62584E+00  0.84811E-01
  0.62944E+00  0.84485E-01
  0.63302E+00  0.84152E-01
  0.63660E+00  0.83811E-01
  0.64017E+00  0.83463E-01
  0.64373E+00  0.83110E-01
  0.64728E+00  0.82749E-01
  0.65082E+00  0.82383E-01
  0.65434E+00  0.82009E-01
  0.65786E+00  0.81629E-01
  0.66136E+00  0.81242E-01
  0.66486E+00  0.80848E-01
  0.66834E+00  0.80446E-01
  0.67182E+00  0.80037E-01
  0.67528E+00  0.79621E-01
  0.67873E+00  0.79198E-01
  0.68218E+00  0.78768E-01
  0.68561E+00  0.78332E-01
  0.68903E+00  0.77889E-01
  0.69244E+00  0.77440E-01
  0.69584E+00  0.76985E-01
  0.69923E+00  0.76523E-01
  0.70261E+00  0.76055E-01
  0.70598E+00  0.75581E-01
  0.70934E+00  0.75100E-01
  0.71269E+00  0.74613E-01
  0.71603E+00  0.74120E-01
  0.71936E+00  0.73622E-01
  0.72268E+00  0.73119E-01
  0.72599E+00  0.72611E-01
  0.72929E+00  0.72098E-01
  0.73258E+00  0.71580E-01
  0.73586E+00  0.71057E-01
  0.73913E+00  0.70529E-01
  0.74239E+00  0.69996E-01
  0.74563E+00  0.69458E-01
  0.74887E+00  0.68916E-01
  0.75210E+00  0.68369E-01
  0.75532E+00  0.67819E-01
  0.75853E+00  0.67264E-01
  0.76173E+00  0.66705E-01
  0.76492E+00  0.66142E-01
  0.76810E+00  0.65574E-01
  0.77127E+00  0.65002E-01
  0.77443E+00  0.64427E-01
  0.77758E+00  0.63848E-01
  0.78073E+00  0.63267E-01
  0.78386E+00  0.62683E-01
  0.78698E+00  0.62097E-01
  0.79010E+00  0.61506E-01
  0.79320E+00  0.60913E-01
  0.79630E+00  0.60317E-01
  0.79938E+00  0.59718E-01
  0.80246E+00  0.59117E-01
  0.80553E+00  0.58515E-01
  0.80858E+00  0.57910E-01
  0.81163E+00  0.57304E-01
  0.81467E+00  0.56695E-01
  0.81771E+00  0.56084E-01
  0.82073E+00  0.55471E-01
  0.82374E+00  0.54857E-01
  0.82675E+00  0.54241E-01
  0.82974E+00  0.53624E-01
  0.83273E+00  0.53007E-01
  0.83571E+00  0.52389E-01
  0.83868E+00  0.51770E-01
  0.84164E+00  0.51149E-01
  0.84460E+00  0.50527E-01
  0.84754E+00  0.49905E-01
  0.85047E+00  0.49284E-01
  0.85339E+00  0.48664E-01
  0.85628E+00  0.48048E-01
  0.85916E+00  0.47433E-01
  0.86202E+00  0.46821E-01
  0.86485E+00  0.46212E-01
  0.86768E+00  0.45604E-01
  0.87048E+00  0.44998E-01
  0.87326E+00  0.44393E-01
  0.87603E+00  0.43791E-01
  0.87878E+00  0.43190E-01
  0.88151E+00  0.42590E-01
  0.88422E+00  0.41991E-01
  0.88691E+00  0.41394E-01
  0.88959E+00  0.40800E-01
  0.89225E+00  0.40208E-01
  0.89489E+00  0.39620E-01
  0.89752E+00  0.39035E-01
  0.90013E+00  0.38454E-01
  0.90272E+00  0.37876E-01
  0.90529E+00  0.37300E-01
  0.90785E+00  0.36727E-01
  0.91040E+00  0.36158E-01
  0.91292E+00  0.35591E-01
  0.91543E+00  0.35026E-01
  0.91792E+00  0.34464E-01
  0.92040E+00  0.33905E-01
  0.92286E+00  0.33348E-01
  0.92531E+00  0.32794E-01
  0.92774E+00  0.32243E-01
  0.93015E+00  0.31695E-01
  0.93255E+00  0.31151E-01
  0.93493E+00  0.30609E-01
  0.93730E+00  0.30071E-01
  0.93965E+00  0.29536E-01
  0.94199E+00  0.29003E-01
  0.94431E+00  0.28474E-01
  0.94662E+00  0.27947E-01
  0.94891E+00  0.27422E-01
  0.95119E+00  0.26900E-01
  0.95345E+00  0.26381E-01
  0.95570E+00  0.25865E-01
  0.95794E+00  0.25351E-01
  0.96016E+00  0.24839E-01
  0.96237E+00  0.24330E-01
  0.96457E+00  0.23824E-01
  0.96675E+00  0.23321E-01
  0.96892E+00  0.22821E-01
  0.97108E+00  0.22323E-01
  0.97323E+00  0.21825E-01
  0.97536E+00  0.21327E-01
  0.97749E+00  0.20830E-01
  0.97960E+00  0.20341E-01
  0.98170E+00  0.19855E-01
  0.98379E+00  0.19367E-01
  0.98587E+00  0.18869E-01
  0.98793E+00  0.18353E-01
  0.98998E+00  0.17817E-01
  0.99202E+00  0.17266E-01
  0.99403E+00  0.16703E-01
  0.99604E+00  0.16128E-01
  0.99803E+00  0.15541E-01
  0.10000E+01  0.14943E-01
  0.12716E+01 -0.10970E+00
  0.12697E+01 -0.10891E+00
  0.12678E+01 -0.10810E+00
  0.12658E+01 -0.10728E+00
  0.12638E+01 -0.10644E+00
  0.12618E+01 -0.10559E+00
  0.12597E+01 -0.10472E+00
  0.12576E+01 -0.10383E+00
  0.12555E+01 -0.10293E+00
  0.12533E+01 -0.10200E+00
  0.12511E+01 -0.10103E+00
  0.12488E+01 -0.10002E+00
  0.12465E+01 -0.99013E-01
  0.12442E+01 -0.97991E-01
  0.12418E+01 -0.96971E-01
  0.12393E+01 -0.95964E-01
  0.12368E+01 -0.94961E-01
  0.12342E+01 -0.93948E-01
  0.12316E+01 -0.92930E-01
  0.12289E+01 -0.91903E-01
  0.12262E+01 -0.90863E-01
  0.12234E+01 -0.89812E-01
  0.12206E+01 -0.88764E-01
  0.12178E+01 -0.87718E-01
  0.12149E+01 -0.86676E-01
  0.12120E+01 -0.85640E-01
  0.12091E+01 -0.84611E-01
  0.12061E+01 -0.83587E-01
  0.12031E+01 -0.82570E-01
  0.12001E+01 -0.81559E-01
  0.11970E+01 -0.80556E-01
  0.11939E+01 -0.79562E-01
  0.11908E+01 -0.78577E-01
  0.11877E+01 -0.77601E-01
  0.11845E+01 -0.76633E-01
  0.11813E+01 -0.75677E-01
  0.11781E+01 -0.74729E-01
  0.11748E+01 -0.73785E-01
  0.11715E+01 -0.72847E-01
  0.11682E+01 -0.71917E-01
  0.11648E+01 -0.70996E-01
  0.11614E+01 -0.70086E-01
  0.11580E+01 -0.69186E-01
  0.11545E+01 -0.68295E-01
  0.11510E+01 -0.67414E-01
  0.11475E+01 -0.66544E-01
  0.11439E+01 -0.65681E-01
  0.11403E+01 -0.64826E-01
  0.11367E+01 -0.63980E-01
  0.11330E+01 -0.63143E-01
  0.11293E+01 -0.62314E-01
  0.11256E+01 -0.61494E-01
  0.11218E+01 -0.60683E-01
  0.11180E+01 -0.59882E-01
  0.11141E+01 -0.59091E-01
  0.11102E+01 -0.58309E-01
  0.11063E+01 -0.57533E-01
  0.11024E+01 -0.56781E-01
  0.10986E+01 -0.56056E-01
  0.10949E+01 -0.55358E-01
  0.10912E+01 -0.54685E-01
  0.10876E+01 -0.54036E-01
  0.10841E+01 -0.53413E-01
  0.10806E+01 -0.52813E-01
  0.10772E+01 -0.52233E-01
  0.10739E+01 -0.51673E-01
  0.10706E+01 -0.51131E-01
  0.10675E+01 -0.50607E-01
  0.10643E+01 -0.50100E-01
  0.10612E+01 -0.49610E-01
  0.10582E+01 -0.49136E-01
  0.10553E+01 -0.48678E-01
  0.10524E+01 -0.48235E-01
  0.10496E+01 -0.47806E-01
  0.10468E+01 -0.47390E-01
  0.10441E+01 -0.46986E-01
  0.10414E+01 -0.46593E-01
  0.10388E+01 -0.46211E-01
  0.10362E+01 -0.45840E-01
  0.10337E+01 -0.45480E-01
  0.10313E+01 -0.45129E-01
  0.10288E+01 -0.44787E-01
  0.10265E+01 -0.44453E-01
  0.10242E+01 -0.44127E-01
  0.10219E+01 -0.43810E-01
  0.10197E+01 -0.43503E-01
  0.10175E+01 -0.43206E-01
  0.10154E+01 -0.42918E-01
  0.10133E+01 -0.42636E-01
  0.10113E+01 -0.42359E-01
  0.10093E+01 -0.42089E-01
  0.10073E+01 -0.41824E-01
  0.10054E+01 -0.41565E-01
  0.10035E+01 -0.41312E-01
  0.10017E+01 -0.41064E-01
  0.99988E+00 -0.40822E-01
  0.99811E+00 -0.40586E-01
  0.99638E+00 -0.40356E-01
  0.99468E+00 -0.40131E-01
  0.99302E+00 -0.39911E-01
  0.99140E+00 -0.39697E-01
  0.98981E+00 -0.39487E-01
  0.98825E+00 -0.39282E-01
  0.98672E+00 -0.39081E-01
  0.98522E+00 -0.38883E-01
  0.98374E+00 -0.38688E-01
  0.98227E+00 -0.38495E-01
  0.98082E+00 -0.38304E-01
  0.97938E+00 -0.38114E-01
  0.97795E+00 -0.37926E-01
  0.97654E+00 -0.37739E-01
  0.97514E+00 -0.37554E-01
  0.97376E+00 -0.37370E-01
  0.97239E+00 -0.37187E-01
  0.97103E+00 -0.37006E-01
  0.96969E+00 -0.36827E-01
  0.96836E+00 -0.36649E-01
  0.96704E+00 -0.36475E-01
  0.96573E+00 -0.36303E-01
  0.96444E+00 -0.36136E-01
  0.96316E+00 -0.35972E-01
  0.96189E+00 -0.35812E-01
  0.96063E+00 -0.35655E-01
  0.95939E+00 -0.35500E-01
  0.95815E+00 -0.35346E-01
  0.95693E+00 -0.35193E-01
  0.95572E+00 -0.35041E-01
  0.95452E+00 -0.34891E-01
  0.95334E+00 -0.34740E-01
  0.95216E+00 -0.34584E-01
  0.95100E+00 -0.34417E-01
  0.94985E+00 -0.34247E-01
  0.94872E+00 -0.34023E-01
  0.94762E+00 -0.33719E-01
  0.94655E+00 -0.33358E-01
  0.94558E+00 -0.32813E-01
  0.94475E+00 -0.32083E-01
  0.94413E+00 -0.31176E-01
  0.94373E+00 -0.30169E-01
  0.94351E+00 -0.29117E-01
  0.94350E+00 -0.28053E-01
  0.94369E+00 -0.27016E-01
  0.94406E+00 -0.26039E-01
  0.94453E+00 -0.25119E-01
  0.94510E+00 -0.24266E-01
  0.94573E+00 -0.23473E-01
  0.94640E+00 -0.22733E-01
  0.94714E+00 -0.22046E-01
  0.94792E+00 -0.21395E-01
  0.94874E+00 -0.20787E-01
  0.94961E+00 -0.20224E-01
  0.95051E+00 -0.19699E-01
  0.95144E+00 -0.19206E-01
  0.95241E+00 -0.18755E-01
  0.95339E+00 -0.18333E-01
  0.95440E+00 -0.17932E-01
  0.95543E+00 -0.17560E-01
  0.95647E+00 -0.17213E-01
  0.95754E+00 -0.16882E-01
  0.95862E+00 -0.16570E-01
  0.95971E+00 -0.16282E-01
  0.96083E+00 -0.16012E-01
  0.96195E+00 -0.15758E-01
  0.96310E+00 -0.15521E-01
  0.96425E+00 -0.15303E-01
  0.96543E+00 -0.15100E-01
  0.96661E+00 -0.14909E-01
  0.96781E+00 -0.14730E-01
  0.96902E+00 -0.14562E-01
  0.97025E+00 -0.14405E-01
  0.97148E+00 -0.14256E-01
  0.97273E+00 -0.14114E-01
  0.97400E+00 -0.13979E-01
  0.97527E+00 -0.13852E-01
  0.97656E+00 -0.13734E-01
  0.97787E+00 -0.13621E-01
  0.97918E+00 -0.13514E-01
  0.98051E+00 -0.13414E-01
  0.98185E+00 -0.13320E-01
  0.98320E+00 -0.13232E-01
  0.98457E+00 -0.13150E-01
  0.98595E+00 -0.13073E-01
  0.98735E+00 -0.13002E-01
  0.98875E+00 -0.12938E-01
  0.99017E+00 -0.12878E-01
  0.99161E+00 -0.12826E-01
  0.99306E+00 -0.12780E-01
  0.99452E+00 -0.12743E-01
  0.99599E+00 -0.12714E-01
  0.99748E+00 -0.12695E-01
  0.99900E+00 -0.12686E-01
  0.10006E+01 -0.12687E-01
  0.10021E+01 -0.12698E-01
  0.10037E+01 -0.12721E-01
  0.10054E+01 -0.12756E-01
  0.10071E+01 -0.12802E-01
  0.10088E+01 -0.12860E-01
  0.10105E+01 -0.12930E-01
  0.10123E+01 -0.13015E-01
  0.10141E+01 -0.13114E-01
  0.10160E+01 -0.13231E-01
  0.10179E+01 -0.13361E-01
  0.10198E+01 -0.13507E-01
  0.10218E+01 -0.13668E-01
  0.10238E+01 -0.13845E-01
  0.10258E+01 -0.14036E-01
  0.10279E+01 -0.14244E-01
  0.10300E+01 -0.14470E-01
  0.10322E+01 -0.14717E-01
  0.10344E+01 -0.14983E-01
  0.10366E+01 -0.15270E-01
  0.10389E+01 -0.15578E-01
  0.10413E+01 -0.15907E-01
  0.10437E+01 -0.16259E-01
  0.10461E+01 -0.16633E-01
  0.10486E+01 -0.17032E-01
  0.10511E+01 -0.17460E-01
  0.10537E+01 -0.17918E-01
  0.10563E+01 -0.18405E-01
  0.10590E+01 -0.18920E-01
  0.10617E+01 -0.19464E-01
  0.10645E+01 -0.20039E-01
  0.10673E+01 -0.20645E-01
  0.10702E+01 -0.21284E-01
  0.10731E+01 -0.21956E-01
  0.10761E+01 -0.22665E-01
  0.10792E+01 -0.23407E-01
  0.10823E+01 -0.24182E-01
  0.10855E+01 -0.24992E-01
  0.10887E+01 -0.25838E-01
  0.10920E+01 -0.26720E-01