 VARIABLES= "X", "Y"
 ZONE N=    2221 E=    4359 F=FEPOINT  ET=triangle
  0.99606E+00 -0.57000E-03
  0.98429E+00 -0.22600E-02
  0.96489E+00 -0.49900E-02
  0.93815E+00 -0.86400E-02
  0.90451E+00 -0.13070E-01
  0.86448E+00 -0.18110E-01
  0.81871E+00 -0.23570E-01
  0.76791E+00 -0.29280E-01
  0.71289E+00 -0.35050E-01
  0.65451E+00 -0.40690E-01
  0.59369E+00 -0.45990E-01
  0.53140E+00 -0.50750E-01
  0.46860E+00 -0.54750E-01
  0.40631E+00 -0.57750E-01
  0.34549E+00 -0.59560E-01
  0.28711E+00 -0.59970E-01
  0.23209E+00 -0.58860E-01
  0.18129E+00 -0.56160E-01
  0.13552E+00 -0.51860E-01
  0.95490E-01 -0.46050E-01
  0.61850E-01 -0.38860E-01
  0.35110E-01 -0.30470E-01
  0.15710E-01 -0.21090E-01
  0.39400E-02 -0.10880E-01
  0.19700E-02 -0.77600E-02
  0.99000E-03 -0.55200E-02
  0.49000E-03 -0.39200E-02
  0.25000E-03 -0.27800E-02
  0.00000E+00  0.00000E+00
  0.25000E-03  0.27800E-02
  0.49000E-03  0.39200E-02
  0.99000E-03  0.55200E-02
  0.19700E-02  0.77600E-02
  0.39400E-02  0.10880E-01
  0.15710E-01  0.21090E-01
  0.35110E-01  0.30470E-01
  0.61850E-01  0.38860E-01
  0.95490E-01  0.46050E-01
  0.13552E+00  0.51860E-01
  0.18129E+00  0.56160E-01
  0.23209E+00  0.58860E-01
  0.28711E+00  0.59970E-01
  0.34549E+00  0.59560E-01
  0.40631E+00  0.57750E-01
  0.46860E+00  0.54750E-01
  0.53140E+00  0.50750E-01
  0.59369E+00  0.45990E-01
  0.65451E+00  0.40690E-01
  0.71289E+00  0.35050E-01
  0.76791E+00  0.29280E-01
  0.81871E+00  0.23570E-01
  0.86448E+00  0.18110E-01
  0.90451E+00  0.13070E-01
  0.93815E+00  0.86400E-02
  0.96489E+00  0.49900E-02
  0.98429E+00  0.22600E-02
  0.99606E+00  0.57000E-03
  0.10000E+01  0.00000E+00
  0.53429E+01  0.12435E+01
  0.48815E+01  0.24088E+01
  0.41448E+01  0.34227E+01
  0.31791E+01  0.42216E+01
  0.20451E+01  0.47553E+01
  0.81395E+00  0.49901E+01
 -0.43691E+00  0.49114E+01
 -0.16289E+01  0.45241E+01
 -0.26871E+01  0.38526E+01
 -0.35451E+01  0.29389E+01
 -0.41489E+01  0.18406E+01
 -0.44606E+01  0.62666E+00
 -0.44606E+01 -0.62667E+00
 -0.41489E+01 -0.18406E+01
 -0.35451E+01 -0.29389E+01
 -0.26871E+01 -0.38526E+01
 -0.16289E+01 -0.45241E+01
 -0.43690E+00 -0.49114E+01
  0.81395E+00 -0.49901E+01
  0.20451E+01 -0.47553E+01
  0.31791E+01 -0.42216E+01
  0.41448E+01 -0.34227E+01
  0.48815E+01 -0.24088E+01
  0.53429E+01 -0.12435E+01
  0.55000E+01  0.00000E+00
  0.10028E+01  0.20000E-04
  0.10070E+01  0.40000E-04
  0.10132E+01  0.80000E-04
  0.10227E+01  0.13000E-03
  0.10368E+01  0.22000E-03
  0.10580E+01  0.36000E-03
  0.10897E+01  0.57000E-03
  0.11374E+01  0.90000E-03
  0.12003E+01  0.13800E-02
  0.12632E+01  0.19000E-02
  0.13261E+01  0.24600E-02
  0.13890E+01  0.30500E-02
  0.14519E+01  0.36600E-02
  0.15149E+01  0.43100E-02
  0.15778E+01  0.49700E-02
  0.16407E+01  0.56500E-02
  0.17036E+01  0.63600E-02
  0.17665E+01  0.70800E-02
  0.18294E+01  0.78100E-02
  0.18923E+01  0.85600E-02
  0.19552E+01  0.93300E-02
  0.20182E+01  0.10100E-01
  0.20811E+01  0.10890E-01
  0.21440E+01  0.11690E-01
  0.22069E+01  0.12500E-01
  0.22698E+01  0.13320E-01
  0.23327E+01  0.14140E-01
  0.23956E+01  0.14980E-01
  0.24585E+01  0.15820E-01
  0.25215E+01  0.16670E-01
  0.25844E+01  0.17520E-01
  0.26473E+01  0.18390E-01
  0.27102E+01  0.19260E-01
  0.27731E+01  0.20130E-01
  0.28360E+01  0.21010E-01
  0.28989E+01  0.21900E-01
  0.29618E+01  0.22790E-01
  0.30247E+01  0.23680E-01
  0.30877E+01  0.24580E-01
  0.31506E+01  0.25490E-01
  0.32135E+01  0.26400E-01
  0.32764E+01  0.27310E-01
  0.33393E+01  0.28230E-01
  0.33707E+01  0.28690E-01
  0.33865E+01  0.28920E-01
  0.33943E+01  0.29030E-01
  0.33983E+01  0.29090E-01
  0.34002E+01  0.29120E-01
  0.34012E+01  0.29130E-01
  0.34017E+01  0.29140E-01
  0.34020E+01  0.29140E-01
  0.34021E+01  0.29150E-01
  0.34021E+01  0.29150E-01
  0.34012E+01  0.28501E-01
  0.34002E+01  0.28491E-01
  0.33983E+01  0.28461E-01
  0.33943E+01  0.28401E-01
  0.33865E+01  0.28291E-01
  0.33708E+01  0.28061E-01
  0.33393E+01  0.27601E-01
  0.32764E+01  0.26681E-01
  0.32135E+01  0.25771E-01
  0.31506E+01  0.24861E-01
  0.30877E+01  0.23951E-01
  0.30247E+01  0.23051E-01
  0.29618E+01  0.22161E-01
  0.28989E+01  0.21271E-01
  0.28360E+01  0.20381E-01
  0.27731E+01  0.19501E-01
  0.27102E+01  0.18631E-01
  0.26473E+01  0.17761E-01
  0.25844E+01  0.16891E-01
  0.25215E+01  0.16041E-01
  0.24585E+01  0.15191E-01
  0.23956E+01  0.14351E-01
  0.23327E+01  0.13511E-01
  0.22698E+01  0.12691E-01
  0.22069E+01  0.11871E-01
  0.21440E+01  0.11061E-01
  0.20811E+01  0.10261E-01
  0.20182E+01  0.94708E-02
  0.19552E+01  0.87008E-02
  0.18923E+01  0.79308E-02
  0.18294E+01  0.71808E-02
  0.17665E+01  0.64508E-02
  0.17036E+01  0.57308E-02
  0.16407E+01  0.50208E-02
  0.15778E+01  0.43408E-02
  0.15149E+01  0.36808E-02
  0.14519E+01  0.30308E-02
  0.13890E+01  0.24208E-02
  0.13261E+01  0.18308E-02
  0.12632E+01  0.12708E-02
  0.12003E+01  0.75075E-03
  0.11374E+01  0.27074E-03
  0.10897E+01 -0.59258E-04
  0.10580E+01 -0.26926E-03
  0.10368E+01 -0.40926E-03
  0.10227E+01 -0.49926E-03
  0.10133E+01 -0.54926E-03
  0.10070E+01 -0.58926E-03
  0.10028E+01 -0.60927E-03
  0.10000E+01 -0.62895E-03
  0.99615E+00 -0.11928E-02
  0.98438E+00 -0.28830E-02
  0.96498E+00 -0.56133E-02
  0.93823E+00 -0.92637E-02
  0.90459E+00 -0.13694E-01
  0.86456E+00 -0.18735E-01
  0.81878E+00 -0.24195E-01
  0.76798E+00 -0.29906E-01
  0.71295E+00 -0.35676E-01
  0.65457E+00 -0.41317E-01
  0.59374E+00 -0.46617E-01
  0.53144E+00 -0.51378E-01
  0.46864E+00 -0.55378E-01
  0.40633E+00 -0.58379E-01
  0.34550E+00 -0.60189E-01
  0.28711E+00 -0.60599E-01
  0.23207E+00 -0.59489E-01
  0.18124E+00 -0.56788E-01
  0.13545E+00 -0.52485E-01
  0.95379E-01 -0.46670E-01
  0.61690E-01 -0.39469E-01
  0.34878E-01 -0.31057E-01
  0.15363E-01 -0.21616E-01
  0.34575E-02 -0.11294E-01
  0.14139E-02 -0.80550E-02
  0.39966E-03 -0.57406E-02
 -0.11959E-03 -0.40790E-02
 -0.37342E-03 -0.28733E-02
 -0.62927E-03  0.00000E+00
 -0.37342E-03  0.28733E-02
 -0.11959E-03  0.40790E-02
  0.39966E-03  0.57406E-02
  0.14125E-02  0.80558E-02
  0.34606E-02  0.11292E-01
  0.15361E-01  0.21620E-01
  0.34878E-01  0.31057E-01
  0.61690E-01  0.39469E-01
  0.95379E-01  0.46670E-01
  0.13545E+00  0.52485E-01
  0.18124E+00  0.56788E-01
  0.23207E+00  0.59489E-01
  0.28711E+00  0.60599E-01
  0.34550E+00  0.60189E-01
  0.40633E+00  0.58379E-01
  0.46864E+00  0.55378E-01
  0.53144E+00  0.51378E-01
  0.59374E+00  0.46617E-01
  0.65457E+00  0.41317E-01
  0.71295E+00  0.35676E-01
  0.76798E+00  0.29906E-01
  0.81878E+00  0.24195E-01
  0.86456E+00  0.18735E-01
  0.90459E+00  0.13694E-01
  0.93823E+00  0.92638E-02
  0.96498E+00  0.56133E-02
  0.98438E+00  0.28830E-02
  0.99615E+00  0.11928E-02
  0.10000E+01  0.62960E-03
  0.10028E+01  0.64926E-03
  0.10070E+01  0.66926E-03
  0.10132E+01  0.70926E-03
  0.10227E+01  0.75926E-03
  0.10368E+01  0.84926E-03
  0.10579E+01  0.98926E-03
  0.10897E+01  0.11993E-02
  0.11374E+01  0.15293E-02
  0.12003E+01  0.20093E-02
  0.12632E+01  0.25292E-02
  0.13261E+01  0.30892E-02
  0.13890E+01  0.36792E-02
  0.14519E+01  0.42892E-02
  0.15148E+01  0.49392E-02
  0.15778E+01  0.55992E-02
  0.16407E+01  0.62792E-02
  0.17036E+01  0.69892E-02
  0.17665E+01  0.77092E-02
  0.18294E+01  0.84392E-02
  0.18923E+01  0.91892E-02
  0.19552E+01  0.99592E-02
  0.20182E+01  0.10729E-01
  0.20811E+01  0.11519E-01
  0.21440E+01  0.12319E-01
  0.22069E+01  0.13129E-01
  0.22698E+01  0.13949E-01
  0.23327E+01  0.14769E-01
  0.23956E+01  0.15609E-01
  0.24585E+01  0.16449E-01
  0.25214E+01  0.17299E-01
  0.25844E+01  0.18149E-01
  0.26473E+01  0.19019E-01
  0.27102E+01  0.19889E-01
  0.27731E+01  0.20759E-01
  0.28360E+01  0.21639E-01
  0.28989E+01  0.22529E-01
  0.29618E+01  0.23419E-01
  0.30247E+01  0.24309E-01
  0.30876E+01  0.25209E-01
  0.31506E+01  0.26119E-01
  0.32135E+01  0.27029E-01
  0.32764E+01  0.27939E-01
  0.33393E+01  0.28859E-01
  0.33707E+01  0.29319E-01
  0.33865E+01  0.29549E-01
  0.33943E+01  0.29659E-01
  0.33983E+01  0.29719E-01
  0.34002E+01  0.29749E-01
  0.34012E+01  0.29759E-01
  0.34003E+01  0.27265E-01
  0.33983E+01  0.27235E-01
  0.33944E+01  0.27175E-01
  0.33865E+01  0.27065E-01
  0.33708E+01  0.26835E-01
  0.33393E+01  0.26375E-01
  0.32764E+01  0.25449E-01
  0.32135E+01  0.24539E-01
  0.31506E+01  0.23629E-01
  0.30877E+01  0.22719E-01
  0.30248E+01  0.21820E-01
  0.29619E+01  0.20931E-01
  0.28989E+01  0.20041E-01
  0.28360E+01  0.19151E-01
  0.27731E+01  0.18271E-01
  0.27102E+01  0.17401E-01
  0.26473E+01  0.16531E-01
  0.25844E+01  0.15661E-01
  0.25215E+01  0.14811E-01
  0.24586E+01  0.13961E-01
  0.23957E+01  0.13121E-01
  0.23327E+01  0.12281E-01
  0.22698E+01  0.11461E-01
  0.22069E+01  0.10642E-01
  0.21440E+01  0.98317E-02
  0.20811E+01  0.90317E-02
  0.20182E+01  0.82416E-02
  0.19553E+01  0.74716E-02
  0.18924E+01  0.67016E-02
  0.18294E+01  0.59516E-02
  0.17665E+01  0.52216E-02
  0.17036E+01  0.45017E-02
  0.16407E+01  0.37916E-02
  0.15778E+01  0.31115E-02
  0.15149E+01  0.24518E-02
  0.14519E+01  0.18020E-02
  0.13890E+01  0.11920E-02
  0.13261E+01  0.60187E-03
  0.12632E+01  0.41846E-04
  0.12003E+01 -0.47658E-03
  0.11374E+01 -0.95518E-03
  0.10897E+01 -0.12852E-02
  0.10580E+01 -0.14952E-02
  0.10368E+01 -0.16359E-02
  0.10227E+01 -0.17258E-02
  0.10133E+01 -0.17756E-02
  0.10070E+01 -0.18157E-02
  0.10028E+01 -0.18356E-02
  0.10001E+01 -0.18547E-02
  0.99632E+00 -0.24072E-02
  0.98455E+00 -0.40982E-02
  0.96515E+00 -0.68307E-02
  0.93840E+00 -0.10480E-01
  0.90475E+00 -0.14911E-01
  0.86471E+00 -0.19951E-01
  0.81892E+00 -0.25414E-01
  0.76811E+00 -0.31125E-01
  0.71308E+00 -0.36896E-01
  0.65468E+00 -0.42539E-01
  0.59384E+00 -0.47842E-01
  0.53153E+00 -0.52602E-01
  0.46870E+00 -0.56604E-01
  0.40638E+00 -0.59607E-01
  0.34552E+00 -0.61415E-01
  0.28710E+00 -0.61829E-01
  0.23202E+00 -0.60717E-01
  0.18115E+00 -0.58014E-01
  0.13530E+00 -0.53708E-01
  0.95162E-01 -0.47877E-01
  0.61376E-01 -0.40661E-01
  0.34424E-01 -0.32201E-01
  0.14677E-01 -0.22659E-01
  0.25100E-02 -0.12108E-01
  0.32708E-03 -0.86318E-02
 -0.75193E-03 -0.61714E-02
 -0.13090E-02 -0.43893E-02
 -0.15962E-02 -0.30558E-02
 -0.18723E-02  0.00000E+00
 -0.15962E-02  0.30558E-02
 -0.13090E-02  0.43893E-02
 -0.75208E-03  0.61710E-02
  0.31689E-03  0.86378E-02
  0.24918E-02  0.12125E-01
  0.14662E-01  0.22681E-01
  0.34424E-01  0.32201E-01
  0.61376E-01  0.40661E-01
  0.95162E-01  0.47877E-01
  0.13530E+00  0.53708E-01
  0.18115E+00  0.58014E-01
  0.23202E+00  0.60717E-01
  0.28710E+00  0.61829E-01
  0.34552E+00  0.61415E-01
  0.40638E+00  0.59605E-01
  0.46870E+00  0.56604E-01
  0.53153E+00  0.52602E-01
  0.59384E+00  0.47840E-01
  0.65468E+00  0.42539E-01
  0.71308E+00  0.36896E-01
  0.76811E+00  0.31125E-01
  0.81892E+00  0.25414E-01
  0.86471E+00  0.19951E-01
  0.90475E+00  0.14911E-01
  0.93840E+00  0.10477E-01
  0.96515E+00  0.68312E-02
  0.98455E+00  0.40984E-02
  0.99632E+00  0.24074E-02
  0.10001E+01  0.18567E-02
  0.10028E+01  0.18758E-02
  0.10070E+01  0.18957E-02
  0.10132E+01  0.19359E-02
  0.10226E+01  0.19856E-02
  0.10368E+01  0.20752E-02
  0.10579E+01  0.22152E-02
  0.10897E+01  0.24252E-02
  0.11373E+01  0.27552E-02
  0.12003E+01  0.32352E-02
  0.12632E+01  0.37551E-02
  0.13261E+01  0.43161E-02
  0.13890E+01  0.49078E-02
  0.14519E+01  0.55180E-02
  0.15148E+01  0.61680E-02
  0.15777E+01  0.68280E-02
  0.16407E+01  0.75080E-02
  0.17036E+01  0.82181E-02
  0.17665E+01  0.89384E-02
  0.18294E+01  0.96684E-02
  0.18923E+01  0.10418E-01
  0.19552E+01  0.11188E-01
  0.20181E+01  0.11958E-01
  0.20810E+01  0.12748E-01
  0.21440E+01  0.13548E-01
  0.22069E+01  0.14358E-01
  0.22698E+01  0.15178E-01
  0.23327E+01  0.15998E-01
  0.23956E+01  0.16838E-01
  0.24585E+01  0.17679E-01
  0.25214E+01  0.18529E-01
  0.25843E+01  0.19379E-01
  0.26473E+01  0.20249E-01
  0.27102E+01  0.21119E-01
  0.27731E+01  0.21989E-01
  0.28360E+01  0.22869E-01
  0.28989E+01  0.23759E-01
  0.29618E+01  0.24649E-01
  0.30247E+01  0.25539E-01
  0.30876E+01  0.26439E-01
  0.31505E+01  0.27349E-01
  0.32135E+01  0.28259E-01
  0.32764E+01  0.29169E-01
  0.33393E+01  0.30085E-01
  0.33707E+01  0.30545E-01
  0.33865E+01  0.30775E-01
  0.33943E+01  0.30885E-01
  0.33983E+01  0.30946E-01
  0.34002E+01  0.30976E-01
  0.34003E+01  0.25569E-01
  0.33983E+01  0.25540E-01
  0.33944E+01  0.25480E-01
  0.33865E+01  0.25370E-01
  0.33708E+01  0.25140E-01
  0.33394E+01  0.24680E-01
  0.32764E+01  0.23728E-01
  0.32135E+01  0.22818E-01
  0.31506E+01  0.21908E-01
  0.30877E+01  0.20998E-01
  0.30248E+01  0.20104E-01
  0.29619E+01  0.19218E-01
  0.28990E+01  0.18328E-01
  0.28361E+01  0.17437E-01
  0.27731E+01  0.16558E-01
  0.27102E+01  0.15688E-01
  0.26473E+01  0.14817E-01
  0.25844E+01  0.13947E-01
  0.25215E+01  0.13098E-01
  0.24586E+01  0.12247E-01
  0.23957E+01  0.11408E-01
  0.23328E+01  0.10567E-01
  0.22698E+01  0.97500E-02
  0.22069E+01  0.89318E-02
  0.21440E+01  0.81217E-02
  0.20811E+01  0.73217E-02
  0.20182E+01  0.65315E-02
  0.19553E+01  0.57615E-02
  0.18924E+01  0.49916E-02
  0.18295E+01  0.42415E-02
  0.17665E+01  0.35114E-02
  0.17036E+01  0.27917E-02
  0.16407E+01  0.20815E-02
  0.15778E+01  0.14013E-02
  0.15149E+01  0.74272E-03
  0.14520E+01  0.93554E-04
  0.13891E+01 -0.51638E-03
  0.13261E+01 -0.11067E-02
  0.12632E+01 -0.16667E-02
  0.12003E+01 -0.21783E-02
  0.11374E+01 -0.26503E-02
  0.10897E+01 -0.29805E-02
  0.10580E+01 -0.31905E-02
  0.10368E+01 -0.33329E-02
  0.10227E+01 -0.34226E-02
  0.10133E+01 -0.34717E-02
  0.10070E+01 -0.35122E-02
  0.10028E+01 -0.35318E-02
  0.10003E+01 -0.35502E-02
  0.99657E+00 -0.40874E-02
  0.98479E+00 -0.57800E-02
  0.96538E+00 -0.85175E-02
  0.93862E+00 -0.12162E-01
  0.90496E+00 -0.16594E-01
  0.86491E+00 -0.21634E-01
  0.81912E+00 -0.27100E-01
  0.76829E+00 -0.32814E-01
  0.71325E+00 -0.38583E-01
  0.65484E+00 -0.44231E-01
  0.59398E+00 -0.49539E-01
  0.53165E+00 -0.54296E-01
  0.46880E+00 -0.58300E-01
  0.40645E+00 -0.61307E-01
  0.34556E+00 -0.63111E-01
  0.28709E+00 -0.63534E-01
  0.23196E+00 -0.62418E-01
  0.18103E+00 -0.59713E-01
  0.13510E+00 -0.55405E-01
  0.94863E-01 -0.49548E-01
  0.60941E-01 -0.42316E-01
  0.33797E-01 -0.33785E-01
  0.13714E-01 -0.24120E-01
  0.11901E-02 -0.13240E-01
 -0.11805E-02 -0.94301E-02
 -0.23460E-02 -0.67680E-02
 -0.32959E-02 -0.33147E-02
 -0.36105E-02  0.45513E-10
 -0.32959E-02  0.33147E-02
 -0.23476E-02  0.67642E-02
 -0.12141E-02  0.94413E-02
  0.11059E-02  0.13309E-01
  0.13676E-01  0.24180E-01
  0.33798E-01  0.33785E-01
  0.60941E-01  0.42316E-01
  0.94863E-01  0.49548E-01
  0.13510E+00  0.55405E-01
  0.18103E+00  0.59713E-01
  0.23196E+00  0.62418E-01
  0.28709E+00  0.63534E-01
  0.34556E+00  0.63111E-01
  0.40645E+00  0.61302E-01
  0.46880E+00  0.58300E-01
  0.53165E+00  0.54296E-01
  0.59398E+00  0.49532E-01
  0.65484E+00  0.44230E-01
  0.71325E+00  0.38583E-01
  0.76829E+00  0.32814E-01
  0.81912E+00  0.27100E-01
  0.86491E+00  0.21634E-01
  0.90496E+00  0.16594E-01
  0.93862E+00  0.12152E-01
  0.96538E+00  0.85191E-02
  0.98479E+00  0.57809E-02
  0.99657E+00  0.40882E-02
  0.10002E+01  0.35542E-02
  0.10028E+01  0.35725E-02
  0.10070E+01  0.35921E-02
  0.10132E+01  0.36326E-02
  0.10226E+01  0.36816E-02
  0.10367E+01  0.37703E-02
  0.10579E+01  0.39103E-02
  0.10897E+01  0.41202E-02
  0.11373E+01  0.44503E-02
  0.12002E+01  0.49303E-02
  0.12632E+01  0.54499E-02
  0.13261E+01  0.60164E-02
  0.13890E+01  0.66156E-02
  0.14519E+01  0.72262E-02
  0.15148E+01  0.78764E-02
  0.15777E+01  0.85363E-02
  0.16406E+01  0.92164E-02
  0.17035E+01  0.99269E-02
  0.17665E+01  0.10649E-01
  0.18294E+01  0.11378E-01
  0.18923E+01  0.12128E-01
  0.19552E+01  0.12899E-01
  0.20181E+01  0.13668E-01
  0.20810E+01  0.14458E-01
  0.21439E+01  0.15258E-01
  0.22068E+01  0.16068E-01
  0.22698E+01  0.16889E-01
  0.23327E+01  0.17709E-01
  0.23956E+01  0.18548E-01
  0.24585E+01  0.19391E-01
  0.25214E+01  0.20243E-01
  0.25843E+01  0.21093E-01
  0.26472E+01  0.21963E-01
  0.27101E+01  0.22833E-01
  0.27731E+01  0.23703E-01
  0.28360E+01  0.24583E-01
  0.28989E+01  0.25473E-01
  0.29618E+01  0.26363E-01
  0.30247E+01  0.27253E-01
  0.30876E+01  0.28153E-01
  0.31505E+01  0.29063E-01
  0.32134E+01  0.29973E-01
  0.32763E+01  0.30883E-01
  0.33392E+01  0.31780E-01
  0.33707E+01  0.32240E-01
  0.33864E+01  0.32470E-01
  0.33943E+01  0.32579E-01
  0.33982E+01  0.32642E-01
  0.34002E+01  0.32673E-01
  0.33984E+01  0.23296E-01
  0.33944E+01  0.23235E-01
  0.33866E+01  0.23126E-01
  0.33708E+01  0.22895E-01
  0.33394E+01  0.22435E-01
  0.32765E+01  0.21411E-01
  0.32136E+01  0.20502E-01
  0.31507E+01  0.19591E-01
  0.30877E+01  0.18681E-01
  0.30248E+01  0.17802E-01
  0.29619E+01  0.16922E-01
  0.28990E+01  0.16032E-01
  0.28361E+01  0.15142E-01
  0.27732E+01  0.14262E-01
  0.27103E+01  0.13392E-01
  0.26474E+01  0.12522E-01
  0.25844E+01  0.11652E-01
  0.25215E+01  0.10802E-01
  0.24586E+01  0.99521E-02
  0.23957E+01  0.91123E-02
  0.23328E+01  0.82712E-02
  0.22699E+01  0.74607E-02
  0.22070E+01  0.66461E-02
  0.21441E+01  0.58358E-02
  0.20811E+01  0.50358E-02
  0.20182E+01  0.42455E-02
  0.19553E+01  0.34756E-02
  0.18924E+01  0.27057E-02
  0.18295E+01  0.19555E-02
  0.17666E+01  0.12253E-02
  0.17037E+01  0.50580E-03
  0.16407E+01 -0.20447E-03
  0.15778E+01 -0.88495E-03
  0.15149E+01 -0.15404E-02
  0.14520E+01 -0.21878E-02
  0.13891E+01 -0.27978E-02
  0.13262E+01 -0.33885E-02
  0.12632E+01 -0.39484E-02
  0.12003E+01 -0.44414E-02
  0.11374E+01 -0.48950E-02
  0.10897E+01 -0.52254E-02
  0.10580E+01 -0.54355E-02
  0.10368E+01 -0.55813E-02
  0.10227E+01 -0.56705E-02
  0.10133E+01 -0.57182E-02
  0.10070E+01 -0.57595E-02
  0.10028E+01 -0.57786E-02
  0.10004E+01 -0.57960E-02
  0.99689E+00 -0.63138E-02
  0.98511E+00 -0.80094E-02
  0.96569E+00 -0.10756E-01
  0.93892E+00 -0.14390E-01
  0.90525E+00 -0.18823E-01
  0.86519E+00 -0.23862E-01
  0.81938E+00 -0.29335E-01
  0.76854E+00 -0.35051E-01
  0.71347E+00 -0.40816E-01
  0.65504E+00 -0.46475E-01
  0.59416E+00 -0.51792E-01
  0.53181E+00 -0.56541E-01
  0.46892E+00 -0.60549E-01
  0.40654E+00 -0.63564E-01
  0.34560E+00 -0.65356E-01
  0.28707E+00 -0.65798E-01
  0.23188E+00 -0.64674E-01
  0.18086E+00 -0.61969E-01
  0.13483E+00 -0.57661E-01
  0.94467E-01 -0.51760E-01
  0.60361E-01 -0.44520E-01
  0.32966E-01 -0.35885E-01
  0.12421E-01 -0.26086E-01
 -0.57456E-03 -0.14744E-01
 -0.31850E-02 -0.10486E-01
 -0.44102E-02 -0.76717E-02
 -0.55717E-02 -0.35307E-02
 -0.59413E-02 -0.32985E-10
 -0.55717E-02  0.35307E-02
 -0.44228E-02  0.76429E-02
 -0.32741E-02  0.10489E-01
 -0.80895E-03  0.14918E-01
  0.12342E-01  0.26220E-01
  0.32971E-01  0.35887E-01
  0.60361E-01  0.44520E-01
  0.94467E-01  0.51760E-01
  0.13483E+00  0.57661E-01
  0.18086E+00  0.61969E-01
  0.23188E+00  0.64674E-01
  0.28707E+00  0.65798E-01
  0.34560E+00  0.65356E-01
  0.40654E+00  0.63551E-01
  0.46892E+00  0.60548E-01
  0.53181E+00  0.56541E-01
  0.59416E+00  0.51774E-01
  0.65504E+00  0.46473E-01
  0.71347E+00  0.40816E-01
  0.76854E+00  0.35051E-01
  0.81938E+00  0.29334E-01
  0.86519E+00  0.23862E-01
  0.90525E+00  0.18823E-01
  0.93892E+00  0.14366E-01
  0.96569E+00  0.10760E-01
  0.98511E+00  0.80115E-02
  0.99689E+00  0.63156E-02
  0.10004E+01  0.58029E-02
  0.10028E+01  0.58202E-02
  0.10069E+01  0.58392E-02
  0.10132E+01  0.58806E-02
  0.10226E+01  0.59281E-02
  0.10367E+01  0.60150E-02
  0.10579E+01  0.61550E-02
  0.10897E+01  0.63648E-02
  0.11373E+01  0.66950E-02
  0.12002E+01  0.71751E-02
  0.12631E+01  0.76940E-02
  0.13261E+01  0.82760E-02
  0.13890E+01  0.88960E-02
  0.14519E+01  0.95073E-02
  0.15148E+01  0.10158E-01
  0.15777E+01  0.10817E-01
  0.16406E+01  0.11498E-01
  0.17035E+01  0.12210E-01
  0.17664E+01  0.12935E-01
  0.18294E+01  0.13665E-01
  0.18923E+01  0.14414E-01
  0.19552E+01  0.15185E-01
  0.20181E+01  0.15955E-01
  0.20810E+01  0.16744E-01
  0.21439E+01  0.17544E-01
  0.22068E+01  0.18354E-01
  0.22697E+01  0.19175E-01
  0.23326E+01  0.19995E-01
  0.23956E+01  0.20835E-01
  0.24585E+01  0.21683E-01
  0.25214E+01  0.22539E-01
  0.25843E+01  0.23389E-01
  0.26472E+01  0.24260E-01
  0.27101E+01  0.25129E-01
  0.27730E+01  0.25999E-01
  0.28359E+01  0.26879E-01
  0.28988E+01  0.27769E-01
  0.29617E+01  0.28659E-01
  0.30247E+01  0.29549E-01
  0.30876E+01  0.30450E-01
  0.31505E+01  0.31360E-01
  0.32134E+01  0.32270E-01
  0.32763E+01  0.33181E-01
  0.33392E+01  0.34024E-01
  0.33707E+01  0.34484E-01
  0.33864E+01  0.34714E-01
  0.33943E+01  0.34823E-01
  0.33982E+01  0.34889E-01
  0.33984E+01  0.20337E-01
  0.33945E+01  0.20275E-01
  0.33866E+01  0.20167E-01
  0.33709E+01  0.19936E-01
  0.33394E+01  0.19476E-01
  0.32765E+01  0.18283E-01
  0.32136E+01  0.17373E-01
  0.31507E+01  0.16463E-01
  0.30878E+01  0.15552E-01
  0.30249E+01  0.14706E-01
  0.29620E+01  0.13844E-01
  0.28990E+01  0.12954E-01
  0.28361E+01  0.12064E-01
  0.27732E+01  0.11184E-01
  0.27103E+01  0.10314E-01
  0.26474E+01  0.94432E-02
  0.25845E+01  0.85732E-02
  0.25216E+01  0.77242E-02
  0.24587E+01  0.68738E-02
  0.23957E+01  0.60342E-02
  0.23328E+01  0.51922E-02
  0.22699E+01  0.43969E-02
  0.22070E+01  0.35905E-02
  0.21441E+01  0.27800E-02
  0.20812E+01  0.19800E-02
  0.20183E+01  0.11896E-02
  0.19553E+01  0.41966E-03
  0.18924E+01 -0.35020E-03
  0.18295E+01 -0.11004E-02
  0.17666E+01 -0.18309E-02
  0.17037E+01 -0.25500E-02
  0.16408E+01 -0.32604E-02
  0.15779E+01 -0.39414E-02
  0.15149E+01 -0.45896E-02
  0.14520E+01 -0.52329E-02
  0.13891E+01 -0.58431E-02
  0.13262E+01 -0.64344E-02
  0.12633E+01 -0.69939E-02
  0.12003E+01 -0.74437E-02
  0.11374E+01 -0.78542E-02
  0.10898E+01 -0.81850E-02
  0.10580E+01 -0.83951E-02
  0.10368E+01 -0.85473E-02
  0.10227E+01 -0.86356E-02
  0.10133E+01 -0.86809E-02
  0.10070E+01 -0.87235E-02
  0.10028E+01 -0.87417E-02
  0.10007E+01 -0.87579E-02
  0.99731E+00 -0.92513E-02
  0.98553E+00 -0.10952E-01
  0.96610E+00 -0.13716E-01
  0.93931E+00 -0.17331E-01
  0.90563E+00 -0.21765E-01
  0.86555E+00 -0.26799E-01
  0.81972E+00 -0.32283E-01
  0.76886E+00 -0.38003E-01
  0.71377E+00 -0.43761E-01
  0.65531E+00 -0.49437E-01
  0.59441E+00 -0.54770E-01
  0.53201E+00 -0.59504E-01
  0.46909E+00 -0.63517E-01
  0.40665E+00 -0.66547E-01
  0.34565E+00 -0.68316E-01
  0.28705E+00 -0.68793E-01
  0.23177E+00 -0.67656E-01
  0.18064E+00 -0.64951E-01
  0.13447E+00 -0.60649E-01
  0.93944E-01 -0.54678E-01
  0.59592E-01 -0.47442E-01
  0.31874E-01 -0.38659E-01
  0.10686E-01 -0.28727E-01
 -0.29319E-02 -0.16736E-01
 -0.58430E-02 -0.11870E-01
 -0.71381E-02 -0.88595E-02
 -0.85920E-02 -0.38468E-02
 -0.90622E-02 -0.13819E-09
 -0.85920E-02  0.38468E-02
 -0.71829E-02  0.87570E-02
 -0.60585E-02  0.11819E-01
 -0.34838E-02  0.17101E-01
  0.10542E-01  0.29003E-01
  0.31888E-01  0.38664E-01
  0.59592E-01  0.47442E-01
  0.93944E-01  0.54678E-01
  0.13447E+00  0.60649E-01
  0.18064E+00  0.64951E-01
  0.23177E+00  0.67656E-01
  0.28705E+00  0.68793E-01
  0.34565E+00  0.68316E-01
  0.40665E+00  0.66519E-01
  0.46909E+00  0.63515E-01
  0.53201E+00  0.59504E-01
  0.59440E+00  0.54733E-01
  0.65531E+00  0.49432E-01
  0.71377E+00  0.43761E-01
  0.76886E+00  0.38003E-01
  0.81972E+00  0.32282E-01
  0.86555E+00  0.26799E-01
  0.90563E+00  0.21765E-01
  0.93931E+00  0.17279E-01
  0.96610E+00  0.13724E-01
  0.98553E+00  0.10956E-01
  0.99732E+00  0.92549E-02
  0.10027E+01  0.87849E-02
  0.10069E+01  0.88029E-02
  0.10132E+01  0.88458E-02
  0.10226E+01  0.88906E-02
  0.10367E+01  0.89741E-02
  0.10579E+01  0.91141E-02
  0.10897E+01  0.93237E-02
  0.11373E+01  0.96541E-02
  0.12002E+01  0.10134E-01
  0.12631E+01  0.10652E-01
  0.13260E+01  0.11271E-01
  0.13889E+01  0.11939E-01
  0.14518E+01  0.12552E-01
  0.15148E+01  0.13203E-01
  0.15777E+01  0.13862E-01
  0.16406E+01  0.14543E-01
  0.17035E+01  0.15259E-01
  0.17664E+01  0.15991E-01
  0.18293E+01  0.16721E-01
  0.18922E+01  0.17470E-01
  0.19551E+01  0.18242E-01
  0.20180E+01  0.19011E-01
  0.20810E+01  0.19800E-01
  0.21439E+01  0.20601E-01
  0.22068E+01  0.21411E-01
  0.22697E+01  0.22232E-01
  0.23326E+01  0.23052E-01
  0.23955E+01  0.23891E-01
  0.24584E+01  0.24753E-01
  0.25213E+01  0.25620E-01
  0.25842E+01  0.26470E-01
  0.26472E+01  0.27340E-01
  0.27101E+01  0.28210E-01
  0.27730E+01  0.29079E-01
  0.28359E+01  0.29959E-01
  0.28988E+01  0.30850E-01
  0.29617E+01  0.31740E-01
  0.30246E+01  0.32629E-01
  0.30875E+01  0.33531E-01
  0.31504E+01  0.34441E-01
  0.32134E+01  0.35350E-01
  0.32763E+01  0.36263E-01
  0.33392E+01  0.36983E-01
  0.33706E+01  0.37443E-01
  0.33864E+01  0.37673E-01
  0.33942E+01  0.37781E-01
  0.33981E+01  0.37850E-01
  0.33945E+01  0.16311E-01
  0.33867E+01  0.16206E-01
  0.33709E+01  0.15974E-01
  0.33395E+01  0.15513E-01
  0.32766E+01  0.13941E-01
  0.32137E+01  0.13032E-01
  0.31508E+01  0.12120E-01
  0.30878E+01  0.11209E-01
  0.30249E+01  0.10439E-01
  0.29620E+01  0.96166E-02
  0.28991E+01  0.87267E-02
  0.28362E+01  0.78359E-02
  0.27733E+01  0.69567E-02
  0.27104E+01  0.60867E-02
  0.26475E+01  0.52151E-02
  0.25845E+01  0.43451E-02
  0.25216E+01  0.34968E-02
  0.24587E+01  0.26460E-02
  0.23958E+01  0.18068E-02
  0.23329E+01  0.96299E-03
  0.22700E+01  0.20194E-03
  0.22071E+01 -0.58615E-03
  0.21441E+01 -0.13972E-02
  0.20812E+01 -0.21973E-02
  0.20183E+01 -0.29878E-02
  0.19554E+01 -0.37576E-02
  0.18925E+01 -0.45277E-02
  0.18296E+01 -0.52777E-02
  0.17667E+01 -0.60087E-02
  0.17037E+01 -0.67273E-02
  0.16408E+01 -0.74378E-02
  0.15779E+01 -0.81198E-02
  0.15150E+01 -0.87517E-02
  0.14521E+01 -0.93861E-02
  0.13891E+01 -0.99966E-02
  0.13262E+01 -0.10589E-01
  0.12633E+01 -0.11148E-01
  0.12004E+01 -0.11501E-01
  0.11374E+01 -0.11817E-01
  0.10898E+01 -0.12148E-01
  0.10580E+01 -0.12358E-01
  0.10369E+01 -0.12522E-01
  0.10227E+01 -0.12609E-01
  0.10133E+01 -0.12650E-01
  0.10070E+01 -0.12695E-01
  0.99789E+00 -0.13188E-01
  0.98609E+00 -0.14898E-01
  0.96665E+00 -0.17693E-01
  0.93984E+00 -0.21272E-01
  0.90614E+00 -0.25706E-01
  0.86603E+00 -0.30732E-01
  0.82018E+00 -0.36235E-01
  0.76929E+00 -0.41961E-01
  0.71417E+00 -0.47703E-01
  0.65568E+00 -0.53411E-01
  0.59473E+00 -0.58772E-01
  0.53229E+00 -0.63477E-01
  0.46931E+00 -0.67498E-01
  0.40681E+00 -0.70554E-01
  0.34572E+00 -0.72280E-01
  0.28703E+00 -0.72822E-01
  0.23162E+00 -0.71661E-01
  0.18035E+00 -0.68959E-01
  0.13398E+00 -0.64677E-01
  0.93245E-01 -0.58586E-01
  0.58554E-01 -0.51386E-01
  0.30418E-01 -0.42383E-01
  0.83068E-02 -0.32357E-01
 -0.61494E-02 -0.19413E-01
 -0.94327E-02 -0.13706E-01
 -0.99349E-02  0.13471E-01
 -0.73747E-02  0.20123E-01
  0.80633E-02  0.32919E-01
  0.30458E-01  0.42396E-01
  0.58554E-01  0.51386E-01
  0.93245E-01  0.58586E-01
  0.13398E+00  0.64677E-01
  0.18035E+00  0.68959E-01
  0.23162E+00  0.71661E-01
  0.28703E+00  0.72822E-01
  0.34573E+00  0.72280E-01
  0.40681E+00  0.70499E-01
  0.46931E+00  0.67495E-01
  0.53229E+00  0.63477E-01
  0.59473E+00  0.58699E-01
  0.65568E+00  0.53402E-01
  0.71416E+00  0.47703E-01
  0.76929E+00  0.41961E-01
  0.82018E+00  0.36234E-01
  0.86603E+00  0.30732E-01
  0.90614E+00  0.25706E-01
  0.93982E+00  0.21170E-01
  0.96665E+00  0.17709E-01
  0.98610E+00  0.14907E-01
  0.99788E+00  0.13196E-01
  0.10027E+01  0.12757E-01
  0.10069E+01  0.12773E-01
  0.10132E+01  0.12819E-01
  0.10226E+01  0.12859E-01
  0.10367E+01  0.12936E-01
  0.10579E+01  0.13076E-01
  0.10896E+01  0.13285E-01
  0.11373E+01  0.13616E-01
  0.12002E+01  0.14097E-01
  0.12631E+01  0.14613E-01
  0.13260E+01  0.15312E-01
  0.13889E+01  0.16089E-01
  0.14518E+01  0.16704E-01
  0.15147E+01  0.17356E-01
  0.15776E+01  0.18015E-01
  0.16405E+01  0.18697E-01
  0.17034E+01  0.19422E-01
  0.17663E+01  0.20170E-01
  0.18293E+01  0.20900E-01
  0.18922E+01  0.21647E-01
  0.19551E+01  0.22421E-01
  0.20180E+01  0.23190E-01
  0.20809E+01  0.23978E-01
  0.21438E+01  0.24779E-01
  0.22067E+01  0.25589E-01
  0.22696E+01  0.26411E-01
  0.23325E+01  0.27232E-01
  0.23955E+01  0.28070E-01
  0.24584E+01  0.28962E-01
  0.25213E+01  0.29853E-01
  0.25842E+01  0.30703E-01
  0.26471E+01  0.31574E-01
  0.27100E+01  0.32443E-01
  0.27729E+01  0.33312E-01
  0.28358E+01  0.34192E-01
  0.28987E+01  0.35083E-01
  0.29616E+01  0.35973E-01
  0.30246E+01  0.36862E-01
  0.30875E+01  0.37765E-01
  0.31504E+01  0.38676E-01
  0.32133E+01  0.39584E-01
  0.32762E+01  0.40502E-01
  0.33391E+01  0.40945E-01
  0.33706E+01  0.41405E-01
  0.33863E+01  0.41635E-01
  0.33941E+01  0.41742E-01
  0.33946E+01  0.10817E-01
  0.33867E+01  0.10716E-01
  0.33710E+01  0.10482E-01
  0.33396E+01  0.10021E-01
  0.32767E+01  0.75791E-02
  0.32138E+01  0.66702E-02
  0.31509E+01  0.57582E-02
  0.30879E+01  0.48458E-02
  0.30250E+01  0.42545E-02
  0.29621E+01  0.35233E-02
  0.28992E+01  0.26333E-02
  0.28363E+01  0.17418E-02
  0.27734E+01  0.86337E-03
  0.27105E+01 -0.66925E-05
  0.26475E+01 -0.87938E-03
  0.25846E+01 -0.17494E-02
  0.25217E+01 -0.25965E-02
  0.24588E+01 -0.34480E-02
  0.23959E+01 -0.42864E-02
  0.23330E+01 -0.51338E-02
  0.22700E+01 -0.58157E-02
  0.22071E+01 -0.65621E-02
  0.21442E+01 -0.73742E-02
  0.20813E+01 -0.81745E-02
  0.20184E+01 -0.89649E-02
  0.19555E+01 -0.97346E-02
  0.18926E+01 -0.10505E-01
  0.18296E+01 -0.11255E-01
  0.17667E+01 -0.11987E-01
  0.17038E+01 -0.12704E-01
  0.16409E+01 -0.13415E-01
  0.15780E+01 -0.14099E-01
  0.15150E+01 -0.14694E-01
  0.14521E+01 -0.15308E-01
  0.13892E+01 -0.15919E-01
  0.13263E+01 -0.16514E-01
  0.12633E+01 -0.17070E-01
  0.12004E+01 -0.17205E-01
  0.11375E+01 -0.17308E-01
  0.10898E+01 -0.17641E-01
  0.10581E+01 -0.17851E-01
  0.10369E+01 -0.18033E-01
  0.10228E+01 -0.18122E-01
  0.10134E+01 -0.18154E-01
  0.10071E+01 -0.18203E-01
  0.99868E+00 -0.18654E-01
  0.98688E+00 -0.20380E-01
  0.96742E+00 -0.23223E-01
  0.94056E+00 -0.26741E-01
  0.90684E+00 -0.31174E-01
  0.86670E+00 -0.36183E-01
  0.82082E+00 -0.41720E-01
  0.76988E+00 -0.47457E-01
  0.71472E+00 -0.53167E-01
  0.65619E+00 -0.58934E-01
  0.59519E+00 -0.64347E-01
  0.53267E+00 -0.68994E-01
  0.46963E+00 -0.73029E-01
  0.40702E+00 -0.76133E-01
  0.34583E+00 -0.77776E-01
  0.28699E+00 -0.78441E-01
  0.23142E+00 -0.77236E-01
  0.17995E+00 -0.74546E-01
  0.13330E+00 -0.70310E-01
  0.92278E-01 -0.64006E-01